
    -----------------------------------------------------------------------
          Psi4: An Open-Source Ab Initio Electronic Structure Package
                               Psi4 1.1 release

                         Git: Rev {HEAD} add49b9 


    R. M. Parrish, L. A. Burns, D. G. A. Smith, A. C. Simmonett,
    A. E. DePrince III, E. G. Hohenstein, U. Bozkaya, A. Yu. Sokolov,
    R. Di Remigio, R. M. Richard, J. F. Gonthier, A. M. James,
    H. R. McAlexander, A. Kumar, M. Saitow, X. Wang, B. P. Pritchard,
    P. Verma, H. F. Schaefer III, K. Patkowski, R. A. King, E. F. Valeev,
    F. A. Evangelista, J. M. Turney, T. D. Crawford, and C. D. Sherrill,
    J. Chem. Theory Comput. in press (2017).
    (doi: 10.1021/acs.jctc.7b00174)

    -----------------------------------------------------------------------


    Psi4 started on: Sunday, 25 June 2017 11:03PM

    Process ID:  31474
    PSIDATADIR: /home/eric/opt/apps/python/psi4conda/share/psi4
    Memory:     500.0 MiB
    Threads:    4
    
  ==> Input File <==

--------------------------------------------------------------------------
# -*- mode: python -*-

molecule {
    Na 0.000 0.000 0.000
    Cl 0.000 0.000 2.000
}

set {
    reference rhf
    scf_type direct
    basis jun-cc-pvtz
    freeze_core false
}

optimize('ccsd')
--------------------------------------------------------------------------
gradient() will perform analytic gradient computation.

*** tstart() called on odysseus
*** at Sun Jun 25 23:03:23 2017

   => Loading Basis Set <=

    Name: JUN-CC-PVTZ
    Role: ORBITAL
    Keyword: BASIS
    atoms 1 entry NA         line   423 file /home/eric/opt/apps/python/psi4conda/share/psi4/basis/jun-cc-pvtz.gbs 
    atoms 2 entry CL         line   910 file /home/eric/opt/apps/python/psi4conda/share/psi4/basis/jun-cc-pvtz.gbs 

    There are an even number of electrons - assuming singlet.
    Specify the multiplicity in the molecule input block.


         ---------------------------------------------------------
                                   SCF
            by Justin Turney, Rob Parrish, and Andy Simmonett
                              RHF Reference
                        4 Threads,    500 MiB Core
         ---------------------------------------------------------

  ==> Geometry <==

    Molecular point group: c2v
    Full point group: C_inf_v

    Geometry (in Angstrom), charge = 0, multiplicity = 1:

       Center              X                  Y                   Z               Mass       
    ------------   -----------------  -----------------  -----------------  -----------------
          NA          0.000000000000     0.000000000000    -1.206683371610    22.989769280870
          CL          0.000000000000     0.000000000000     0.793316628390    34.968852682000

  Running in c2v symmetry.

  Rotational constants: A = ************  B =      0.30384  C =      0.30384 [cm^-1]
  Rotational constants: A = ************  B =   9108.76000  C =   9108.76000 [MHz]
  Nuclear repulsion =   49.478069003165004

  Charge       = 0
  Multiplicity = 1
  Electrons    = 28
  Nalpha       = 14
  Nbeta        = 14

  ==> Algorithm <==

  SCF Algorithm Type is DIRECT.
  DIIS enabled.
  MOM disabled.
  Fractional occupation disabled.
  Guess Type is SAD.
  Energy threshold   = 1.00e-10
  Density threshold  = 1.00e-10
  Integral threshold = 0.00e+00

  ==> Primary Basis <==

  Basis Set: JUN-CC-PVTZ
    Blend: JUN-CC-PVTZ
    Number of shells: 30
    Number of basis function: 86
    Number of Cartesian functions: 98
    Spherical Harmonics?: true
    Max angular momentum: 3

   => Loading Basis Set <=

    Name: (JUN-CC-PVTZ AUX)
    Role: JKFIT
    Keyword: DF_BASIS_SCF
    atoms 1 entry NA         line   502 file /home/eric/opt/apps/python/psi4conda/share/psi4/basis/def2-qzvpp-jkfit.gbs 
    atoms 2 entry CL         line   787 file /home/eric/opt/apps/python/psi4conda/share/psi4/basis/jun-cc-pvtz-jkfit.gbs 

  ==> Pre-Iterations <==

   -------------------------------------------------------
    Irrep   Nso     Nmo     Nalpha   Nbeta   Ndocc  Nsocc
   -------------------------------------------------------
     A1        38      38       0       0       0       0
     A2         8       8       0       0       0       0
     B1        20      20       0       0       0       0
     B2        20      20       0       0       0       0
   -------------------------------------------------------
    Total      86      86      14      14      14       0
   -------------------------------------------------------

  Starting with a DF guess...

  ==> Integral Setup <==

  ==> DFJK: Density-Fitted J/K Matrices <==

    J tasked:                  Yes
    K tasked:                  Yes
    wK tasked:                  No
    OpenMP threads:              4
    Integrals threads:           4
    Memory (MB):               375
    Algorithm:                Core
    Integral Cache:           NONE
    Schwarz Cutoff:          1E-12
    Fitting Condition:       1E-12

   => Auxiliary Basis Set <=

  Basis Set: (JUN-CC-PVTZ AUX)
    Blend: DEF2-QZVPP-JKFIT + JUN-CC-PVTZ-JKFIT
    Number of shells: 75
    Number of basis function: 249
    Number of Cartesian functions: 302
    Spherical Harmonics?: true
    Max angular momentum: 4

  Minimum eigenvalue in the overlap matrix is 2.3752186837E-04.
  Using Symmetric Orthogonalization.

  SCF Guess: Superposition of Atomic Densities via on-the-fly atomic UHF.

  ==> Iterations <==

                           Total Energy        Delta E     RMS |[F,P]|

   @DF-RHF iter   0:  -621.36486867741621   -6.21365e+02   4.35526e-02 
   @DF-RHF iter   1:  -621.38601498215598   -2.11463e-02   9.40426e-03 
   @DF-RHF iter   2:  -621.41743997000742   -3.14250e-02   4.19924e-03 DIIS
   @DF-RHF iter   3:  -621.42164169851583   -4.20173e-03   2.78311e-04 DIIS
   @DF-RHF iter   4:  -621.42170637799245   -6.46795e-05   7.57243e-05 DIIS
   @DF-RHF iter   5:  -621.42171372525581   -7.34726e-06   2.17050e-05 DIIS
   @DF-RHF iter   6:  -621.42171435432317   -6.29067e-07   3.83833e-06 DIIS
   @DF-RHF iter   7:  -621.42171437079787   -1.64747e-08   9.75660e-07 DIIS
   @DF-RHF iter   8:  -621.42171437144714   -6.49266e-10   1.68698e-07 DIIS
   @DF-RHF iter   9:  -621.42171437147874   -3.16049e-11   3.23057e-08 DIIS
   @DF-RHF iter  10:  -621.42171437148090   -2.16005e-12   3.84572e-09 DIIS
   @DF-RHF iter  11:  -621.42171437147999    9.09495e-13   6.77444e-10 DIIS
   @DF-RHF iter  12:  -621.42171437148033   -3.41061e-13   1.14383e-10 DIIS
   @DF-RHF iter  13:  -621.42171437148033    0.00000e+00   2.43292e-11 DIIS

  DF guess converged.

  ==> Integral Setup <==

  ==> DirectJK: Integral-Direct J/K Matrices <==

    J tasked:                  Yes
    K tasked:                  Yes
    wK tasked:                  No
    Integrals threads:           4
    Schwarz Cutoff:          1E-12

   @RHF iter  14:  -621.42176040333641   -4.60319e-05   6.78563e-06 DIIS
   @RHF iter  15:  -621.42176041899688   -1.56605e-08   1.11274e-06 DIIS
   @RHF iter  16:  -621.42176041942935   -4.32465e-10   2.37410e-07 DIIS
   @RHF iter  17:  -621.42176041945822   -2.88765e-11   4.88346e-08 DIIS
   @RHF iter  18:  -621.42176041946038   -2.16005e-12   1.27776e-08 DIIS
   @RHF iter  19:  -621.42176041946038    0.00000e+00   2.53192e-09 DIIS
   @RHF iter  20:  -621.42176041946084   -4.54747e-13   7.48457e-10 DIIS
   @RHF iter  21:  -621.42176041946016    6.82121e-13   9.44069e-11 DIIS

  ==> Post-Iterations <==

    Orbital Energies (a.u.)
    -----------------------

    Doubly Occupied:                                                      

       1A1  -104.706037     2A1   -40.460881     3A1   -10.435390  
       4A1    -7.901731     1B1    -7.900922     1B2    -7.900922  
       5A1    -2.797394     6A1    -1.527559     2B1    -1.517767  
       2B2    -1.517767     7A1    -0.958862     8A1    -0.381924  
       3B1    -0.371718     3B2    -0.371718  

    Virtual:                                                              

       9A1    -0.013432     4B1     0.011179     4B2     0.011179  
      10A1     0.014932    11A1     0.024729     5B2     0.037295  
       5B1     0.037295    12A1     0.049833    13A1     0.065469  
       1A2     0.065469     6B2     0.071710     6B1     0.071710  
      14A1     0.076258    15A1     0.111471     7B2     0.115013  
       7B1     0.115013    16A1     0.174083    17A1     0.195021  
       8B1     0.199915     8B2     0.199915    18A1     0.215653  
       2A2     0.215653    19A1     0.249464     9B1     0.250013  
       9B2     0.250013    10B1     0.334538    10B2     0.334538  
      20A1     0.336087    21A1     0.429710     3A2     0.429710  
      22A1     0.476192    11B1     0.498418    11B2     0.498418  
      23A1     0.531570    24A1     0.554322     4A2     0.554322  
      12B2     0.557311    12B1     0.557311    25A1     0.600368  
      13B1     0.604946    13B2     0.604946    26A1     0.660069  
       5A2     0.660069    14B1     0.769539    14B2     0.769539  
      15B2     0.878198    15B1     0.878198    27A1     0.976112  
      28A1     1.003729     6A2     1.039281    29A1     1.039281  
      16B1     1.123354    16B2     1.123354    30A1     1.171146  
      31A1     1.559934    32A1     1.961072    17B2     2.513415  
      17B1     2.513415     7A2     2.557131    33A1     2.557131  
      34A1     2.631846    35A1     2.639511     8A2     2.639511  
      18B1     2.644741    18B2     2.644741    36A1     2.706938  
      19B2     2.708521    19B1     2.708521    20B1     2.863127  
      20B2     2.863127    37A1     3.088736    38A1     5.918088  

    Final Occupation by Irrep:
             A1    A2    B1    B2 
    DOCC [     8,    0,    3,    3 ]

  Energy converged.

  @RHF Final Energy:  -621.42176041946016

   => Energetics <=

    Nuclear Repulsion Energy =             49.4780690031650039
    One-Electron Energy =                -964.2984752776246751
    Two-Electron Energy =                 293.3986458549994154
    DFT Exchange-Correlation Energy =       0.0000000000000000
    Empirical Dispersion Energy =           0.0000000000000000
    PCM Polarization Energy =               0.0000000000000000
    EFP Energy =                            0.0000000000000000
    Total Energy =                       -621.4217604194602700



Properties will be evaluated at   0.000000,   0.000000,   0.000000 Bohr

Properties computed using the SCF density matrix

  Nuclear Dipole Moment: (a.u.)
     X:     0.0000      Y:     0.0000      Z:     0.4023

  Electronic Dipole Moment: (a.u.)
     X:     0.0000      Y:     0.0000      Z:    -3.5133

  Dipole Moment: (a.u.)
     X:     0.0000      Y:     0.0000      Z:    -3.1110     Total:     3.1110

  Dipole Moment: (Debye)
     X:     0.0000      Y:     0.0000      Z:    -7.9074     Total:     7.9074


*** tstop() called on odysseus at Sun Jun 25 23:03:38 2017
Module time:
	user time   =      59.11 seconds =       0.99 minutes
	system time =       0.40 seconds =       0.01 minutes
	total time  =         15 seconds =       0.25 minutes
Total time:
	user time   =      59.11 seconds =       0.99 minutes
	system time =       0.40 seconds =       0.01 minutes
	total time  =         15 seconds =       0.25 minutes
 MINTS: Wrapper to libmints.
   by Justin Turney

   Calculation information:
      Number of threads:                 4
      Number of atoms:                   2
      Number of AO shells:              30
      Number of SO shells:              30
      Number of primitives:            131
      Number of atomic orbitals:        98
      Number of basis functions:        86

      Number of irreps:                  4
      Integral cutoff                 0.00e+00
      Number of functions per irrep: [  38    8   20   20 ]

 OEINTS: Overlap, kinetic, potential, dipole, and quadrupole integrals
         stored in file 35.

      Computing two-electron integrals...done
      Computed 1549769 non-zero two-electron integrals.
        Stored in file 33.


*** tstart() called on odysseus
*** at Sun Jun 25 23:03:42 2017


	Wfn Parameters:
	--------------------
	Wavefunction         = CCSD
	Number of irreps     = 4
	Number of MOs        = 86
	Number of active MOs = 86
	AO-Basis             = NONE
	Semicanonical        = false
	Reference            = RHF
	Print Level          = 1

	IRREP	# MOs	# FZDC	# DOCC	# SOCC	# VIRT	# FZVR
	-----	-----	------	------	------	------	------
	 A1	   38	    0	    8	    0	    30	    0
	 A2	   8	    0	    0	    0	    8	    0
	 B1	   20	    0	    3	    0	    17	    0
	 B2	   20	    0	    3	    0	    17	    0
	Transforming integrals...
	IWL integrals will be deleted.
	(OO|OO)...
	Presorting SO-basis two-electron integrals.
	Sorting File: SO Ints (nn|nn) nbuckets = 1
	Transforming the one-electron integrals and constructing Fock matrices
	Starting first half-transformation.
	Sorting half-transformed integrals.
	First half integral transformation complete.
	Starting second half-transformation.
	Two-electron integral transformation complete.
	(OO|OV)...
	Starting second half-transformation.
	Two-electron integral transformation complete.
	(OO|VV)...
	Starting second half-transformation.
	Two-electron integral transformation complete.
	(OV|OO)...
	Starting first half-transformation.
	Sorting half-transformed integrals.
	First half integral transformation complete.
	Starting second half-transformation.
	Two-electron integral transformation complete.
	(OV|OV)...
	Starting second half-transformation.
	Two-electron integral transformation complete.
	(OV|VV)...
	Starting second half-transformation.
	Two-electron integral transformation complete.
	(VV|OO)...
	Starting first half-transformation.
	Sorting half-transformed integrals.
	First half integral transformation complete.
	Starting second half-transformation.
	Two-electron integral transformation complete.
	(VV|OV)...
	Starting second half-transformation.
	Two-electron integral transformation complete.
	(VV|VV)...
	Starting second half-transformation.
	Two-electron integral transformation complete.
	Frozen core energy     =      0.00000000000000

	Size of irrep 0 of <ab|cd> integrals:      2.378 (MW) /     19.022 (MB)
	Size of irrep 1 of <ab|cd> integrals:      1.119 (MW) /      8.955 (MB)
	Size of irrep 2 of <ab|cd> integrals:      1.669 (MW) /     13.354 (MB)
	Size of irrep 3 of <ab|cd> integrals:      1.669 (MW) /     13.354 (MB)
	Total:                                     6.836 (MW) /     54.685 (MB)

	Size of irrep 0 of <ia|bc> integrals:      0.527 (MW) /      4.219 (MB)
	Size of irrep 1 of <ia|bc> integrals:      0.176 (MW) /      1.405 (MB)
	Size of irrep 2 of <ia|bc> integrals:      0.323 (MW) /      2.584 (MB)
	Size of irrep 3 of <ia|bc> integrals:      0.323 (MW) /      2.584 (MB)
	Total:                                     1.349 (MW) /     10.792 (MB)

	Size of irrep 0 of tijab amplitudes:       0.126 (MW) /      1.012 (MB)
	Size of irrep 1 of tijab amplitudes:       0.019 (MW) /      0.152 (MB)
	Size of irrep 2 of tijab amplitudes:       0.062 (MW) /      0.496 (MB)
	Size of irrep 3 of tijab amplitudes:       0.062 (MW) /      0.496 (MB)
	Total:                                     0.270 (MW) /      2.156 (MB)

	Nuclear Rep. energy          =     49.47806900316500
	SCF energy                   =   -621.42176041946016
	One-electron energy          =   -964.29847527266907
	Two-electron energy          =    293.39864585004392
	Reference energy             =   -621.42176041946004

*** tstop() called on odysseus at Sun Jun 25 23:03:43 2017
Module time:
	user time   =       0.67 seconds =       0.01 minutes
	system time =       0.25 seconds =       0.00 minutes
	total time  =          1 seconds =       0.02 minutes
Total time:
	user time   =      64.81 seconds =       1.08 minutes
	system time =       0.69 seconds =       0.01 minutes
	total time  =         20 seconds =       0.33 minutes

*** tstart() called on odysseus
*** at Sun Jun 25 23:03:43 2017

            **************************
            *                        *
            *        CCENERGY        *
            *                        *
            **************************

    Nuclear Rep. energy (wfn)     =   49.478069003165004
    SCF energy          (wfn)     = -621.421760419460156
    Reference energy    (file100) = -621.421760419460043

    Input parameters:
    -----------------
    Wave function   =     CCSD
    Reference wfn   =     RHF
    Brueckner       =     No
    Memory (Mbytes) =     524.3
    Maxiter         =     50
    R_Convergence   =     1.0e-07
    E_Convergence   =     1.0e-08
    Restart         =     Yes
    DIIS            =     Yes
    AO Basis        =     NONE
    ABCD            =     NEW
    Cache Level     =     2
    Cache Type      =     LOW
    Print Level     =     1
    Num. of threads =     4
    # Amps to Print =     10
    Print MP2 Amps? =     No
    Analyze T2 Amps =     No
    Print Pair Ener =     No
    Local CC        =     No
    SCS-MP2         =     False
    SCSN-MP2        =     False
    SCS-CCSD        =     False

MP2 correlation energy -0.2510340362681476
                Solving CC Amplitude Equations
                ------------------------------
  Iter             Energy              RMS        T1Diag      D1Diag    New D1Diag    D2Diag
  ----     ---------------------    ---------   ----------  ----------  ----------   --------
     0        -0.251034036268148    0.000e+00    0.000000    0.000000    0.000000    0.127504
     1        -0.261082340044037    3.347e-02    0.002967    0.009024    0.009024    0.135560
     2        -0.265335239264498    9.564e-03    0.003251    0.010141    0.010141    0.139467
     3        -0.265808529329020    3.839e-03    0.003656    0.012232    0.012232    0.140221
     4        -0.265740408321396    1.186e-03    0.003812    0.013143    0.013143    0.140382
     5        -0.265729366828532    6.021e-04    0.003899    0.013734    0.013734    0.140426
     6        -0.265737257611165    2.296e-04    0.003941    0.014028    0.014028    0.140420
     7        -0.265737067652768    7.657e-05    0.003950    0.014104    0.014104    0.140408
     8        -0.265736336620532    2.519e-05    0.003951    0.014117    0.014117    0.140406
     9        -0.265736781402752    9.027e-06    0.003951    0.014123    0.014123    0.140406
    10        -0.265736618177710    3.672e-06    0.003951    0.014124    0.014124    0.140407
    11        -0.265736547851642    1.184e-06    0.003951    0.014123    0.014123    0.140407
    12        -0.265736530617157    3.863e-07    0.003951    0.014124    0.014124    0.140407
    13        -0.265736521937711    1.433e-07    0.003951    0.014124    0.014124    0.140407
    14        -0.265736520857747    3.997e-08    0.003951    0.014124    0.014124    0.140407

    Iterations converged.


    Largest TIA Amplitudes:
              7   0         0.0080339819
              7   7        -0.0068709576
              9  44         0.0050650461
             12  61         0.0050650461
              7   1        -0.0050425360
              7   3         0.0049658399
              6  22        -0.0032376705
              6  18         0.0029227611
             10  43        -0.0027981142
             13  60        -0.0027981142

    Largest TIjAb Amplitudes:
      7   7  14  14        -0.0249309454
      7   7  19  19        -0.0241022855
     10  10  20  20        -0.0217470760
     10  10  35  35        -0.0217470760
     13  13  20  20        -0.0217470760
     13  13  35  35        -0.0217470760
     10  10  12  12        -0.0198067565
     10  10  32  32        -0.0198067565
     13  13  12  12        -0.0198067565
     13  13  32  32        -0.0198067565

    SCF energy       (wfn)                    = -621.421760419460156
    Reference energy (file100)                = -621.421760419460043

    Opposite-spin MP2 correlation energy      =   -0.186128595652115
    Same-spin MP2 correlation energy          =   -0.064905440616032
    MP2 correlation energy                    =   -0.251034036268148
      * MP2 total energy                      = -621.672794455728194

    Opposite-spin CCSD correlation energy     =   -0.204052020262736
    Same-spin CCSD correlation energy         =   -0.061684500583791
    CCSD correlation energy                   =   -0.265736520857747
      * CCSD total energy                     = -621.687496940317828


*** tstop() called on odysseus at Sun Jun 25 23:03:47 2017
Module time:
	user time   =       2.15 seconds =       0.04 minutes
	system time =       1.05 seconds =       0.02 minutes
	total time  =          4 seconds =       0.07 minutes
Total time:
	user time   =      66.96 seconds =       1.12 minutes
	system time =       1.74 seconds =       0.03 minutes
	total time  =         24 seconds =       0.40 minutes

*** tstart() called on odysseus
*** at Sun Jun 25 23:03:47 2017


			**************************
			*                        *
			*         CCHBAR         *
			*                        *
			**************************


*** tstop() called on odysseus at Sun Jun 25 23:03:49 2017
Module time:
	user time   =       0.45 seconds =       0.01 minutes
	system time =       0.23 seconds =       0.00 minutes
	total time  =          2 seconds =       0.03 minutes
Total time:
	user time   =      67.41 seconds =       1.12 minutes
	system time =       1.97 seconds =       0.03 minutes
	total time  =         26 seconds =       0.43 minutes

*** tstart() called on odysseus
*** at Sun Jun 25 23:03:49 2017


			**************************
			*        CCLAMBDA        *
			**************************


	Nuclear Rep. energy (wfn)     =   49.478069003165004
	Reference           (wfn)     =                    0
	SCF energy          (wfn)     = -621.421760419460156
	Reference energy    (CC_INFO) = -621.421760419460043
	CCSD energy         (CC_INFO) =   -0.265736520857747
	Total CCSD energy   (CC_INFO) = -621.687496940317828

	Input parameters:
	-----------------
	Maxiter           =     50
	Convergence       = 1.0e-07
	Restart           =     No
	Cache Level       =     2
	Model III         =     No
	DIIS              =     Yes
	AO Basis          =     No
	ABCD              =     NEW
	Local CC          =     No
	Paramaters for left-handed eigenvectors:
	    Irr   Root  Ground-State?    EOM energy        R0
	  1   0     0        Yes       0.0000000000   1.0000000000
	Labels for eigenvector 1:
	LIA 0 -1, Lia 0 -1, LIJAB 0 -1, Lijab 0 -1, LIjAb 0 -1, 2LIjAb - LIjbA 0 -1
	Symmetry of left-hand state: A1
	Symmetry of left-hand eigenvector: A1

	          Solving Lambda Equations
	          ------------------------
	Iter     PseudoEnergy or Norm         RMS  
	----     ---------------------     --------
	   0        -0.265766338972827    0.000e+00
	   1        -0.259113858104306    9.136e-03
	   2        -0.258490062212073    1.622e-03
	   3        -0.258396409790041    7.641e-04
	   4        -0.258384038260278    3.032e-04
	   5        -0.258394554580059    1.070e-04
	   6        -0.258395112150278    3.611e-05
	   7        -0.258394242451264    1.434e-05
	   8        -0.258394161028472    5.038e-06
	   9        -0.258394203869878    1.722e-06
	  10        -0.258394211428730    5.312e-07
	  11        -0.258394212954074    1.714e-07
	  12        -0.258394208695295    5.612e-08

	Largest LIA Amplitudes:
	          7   0         0.0062696852
	          7   7        -0.0052218360
	          9  44         0.0041540314
	         12  61         0.0041540314
	          7   1        -0.0039845416
	          7   3         0.0038802063
	          6  22        -0.0029327785
	          6  18         0.0028110255
	          6  11        -0.0026958398
	          5  13         0.0022659910

	Largest LIjAb Amplitudes:
	  7   7  14  14        -0.0240863876
	  7   7  19  19        -0.0233490604
	 10  10  20  20        -0.0210902692
	 10  10  35  35        -0.0210902692
	 13  13  20  20        -0.0210902692
	 13  13  35  35        -0.0210902692
	 10  10  12  12        -0.0191697024
	 10  10  32  32        -0.0191697024
	 13  13  12  12        -0.0191697024
	 13  13  32  32        -0.0191697024

	Iterations converged.

	Overlap <L|e^T> =        0.91017480134

*** tstop() called on odysseus at Sun Jun 25 23:03:51 2017
Module time:
	user time   =       1.18 seconds =       0.02 minutes
	system time =       0.50 seconds =       0.01 minutes
	total time  =          2 seconds =       0.03 minutes
Total time:
	user time   =      68.59 seconds =       1.14 minutes
	system time =       2.47 seconds =       0.04 minutes
	total time  =         28 seconds =       0.47 minutes

*** tstart() called on odysseus
*** at Sun Jun 25 23:03:51 2017


			**************************
			*                        *
			*        CCDENSITY       *
			*                        *
			**************************


	Input parameters:
	-----------------
	Wave function    =   CCSD
	Reference wfn    =   RHF
	Dertype          = 1
	Tolerance        = 1.0e-14
	Cache Level      = 2
	AO Basis         = No
	OPDM Only        = No
	Relax OPDM       = Yes
	Compute Xi       = No
	Use Zeta         = No
	Xi connected     = Yes
	Compute NO       = No

	Nuclear Rep. energy (wfn)     =   49.478069003165004
	SCF energy          (wfn)     = -621.421760419460156
	Reference energy    (file100) = -621.421760419460043
	CCSD energy         (CC_INFO) =   -0.265736520857747
	Total CCSD energy   (CC_INFO) = -621.687496940317828
	Number of States = 1

	Ground?  State     EOM Energy       R0
	  Yes     0 A1    0.0000000000   1.00000000

	Energies re-computed from CC density:
	-------------------------------------
	One-electron energy        =    0.278994121646987
	IJKL energy                =    0.050558286295385
	IJKA energy                =   -0.001125975496653
	IJAB energy                =   -0.516916208082377
	IBJA energy                =   -0.133466837989613
	CIAB energy                =   -0.000677119518262
	ABCD energy                =    0.056897212528726
	Total two-electron energy  =   -0.544730642262794
	CCSD    correlation energy =   -0.265736520615807
	Total CCSD    energy       = -621.687496940075903

	Virial Theorem Data:
	--------------------
	Kinetic energy (ref)   =  621.908017471619132
	Kinetic energy (corr)  =   -0.210341571398885
	Kinetic energy (total) =  621.697675900220247
	-V/T (ref)             =    1.999218120624757
	-V/T (corr)            =   -0.263357115240965
	-V/T (total)           =    1.999983627154649

	Energies re-computed from Fock-adjusted CC density:
	---------------------------------------------------
	One-electron energy        =    0.430644082359086
	IJKL energy                =   -2.221755140732615
	IJKA energy                =   -0.078726367152829
	IJAB energy                =   -0.516916208082377
	IBJA energy                =    2.064797020011799
	CIAB energy                =   -0.000677119518262
	ABCD energy                =    0.056897212528726
	Total two-electron energy  =   -0.696380602945557
	   CCSD correlation energy =   -0.265736520586471
	Total    CCSD energy       = -621.687496940046458

	Energies re-computed from Mulliken density:
	-------------------------------------------
	One-electron energy        =    0.430644082359086
	IJKL energy                =   -2.221755140732615
	IJKA energy                =   -0.078726367152829
	IJAB energy                =   -0.494220382800177
	IBJA energy                =    2.042101194729586
	CIAB energy                =   -0.000677119518262
	ABCD energy                =    0.056897212528726
	Total two-electron energy  =   -0.696380602945570
	   CCSD correlation energy =   -0.265736520586485
	Total    CCSD energy       = -621.687496940046572


Properties will be evaluated at   0.000000,   0.000000,   0.000000 Bohr

Properties computed using the CC density matrix

  Nuclear Dipole Moment: (a.u.)
     X:     0.0000      Y:     0.0000      Z:     0.4023

  Electronic Dipole Moment: (a.u.)
     X:     0.0000      Y:     0.0000      Z:    -3.4693

  Dipole Moment: (a.u.)
     X:     0.0000      Y:     0.0000      Z:    -3.0671     Total:     3.0671

  Dipole Moment: (Debye)
     X:     0.0000      Y:     0.0000      Z:    -7.7957     Total:     7.7957

  Quadrupole Moment: (Debye Ang)
    XX:   -19.3022     YY:   -19.3022     ZZ:   -13.0214
    XY:     0.0000     XZ:     0.0000     YZ:     0.0000

  Traceless Quadrupole Moment: (Debye Ang)
    XX:    -2.0936     YY:    -2.0936     ZZ:     4.1872
    XY:     0.0000     XZ:     0.0000     YZ:     0.0000

  Mulliken Charges: (a.u.)
   Center  Symbol    Alpha    Beta     Spin     Total
       1    NA     5.22488  5.22488  0.00000  0.55023
       2    CL     8.77512  8.77512  0.00000 -0.55023

   Total alpha = 14.00000, Total beta = 14.00000, Total charge = -0.00000

  Natural Orbital Occupations:

  Total Occupations:
  HONO-2 :    8 A1    1.951
  HONO-1 :    3 B1    1.951
  HONO-0 :    3 B2    1.951
  LUNO+0 :    4 B1    0.022
  LUNO+1 :    4 B2    0.022
  LUNO+2 :    9 A1    0.020
  LUNO+3 :    1 A2    0.020


*** tstop() called on odysseus at Sun Jun 25 23:04:01 2017
Module time:
	user time   =       6.87 seconds =       0.11 minutes
	system time =       0.98 seconds =       0.02 minutes
	total time  =         10 seconds =       0.17 minutes
Total time:
	user time   =      75.46 seconds =       1.26 minutes
	system time =       3.45 seconds =       0.06 minutes
	total time  =         38 seconds =       0.63 minutes
  Cartesian Displacement SALCs
  By SALC:
  Number of SALCs: 2, nirreps: 1
  Project out translations: False
  Project out rotations: False
	irrep = 0, ncomponent = 1
		0: atom 0, direction z, coef 1.000000
	irrep = 0, ncomponent = 1
		0: atom 1, direction z, coef 1.000000

  By Atomic Center:
  Number of atomic centers: 2
   Atomic Center 0:
	x component, size = 0
	y component, size = 0
	z component, size = 1
		0: salc 0, irrep 0, coef 1.000000
   Atomic Center 1:
	x component, size = 0
	y component, size = 0
	z component, size = 1
		0: salc 1, irrep 0, coef 1.000000

    Molecular point group: c2v
    Full point group: C_inf_v

    Geometry (in Bohr), charge = 0, multiplicity = 1:

       Center              X                  Y                   Z       
    ------------   -----------------  -----------------  -----------------
          NA          0.000000000000     0.000000000000    -2.280301101449
          CL          0.000000000000     0.000000000000     1.499151164322

	Presorting MO-basis TPDM.
	Sorting File: MO TPDM (AA|AA) nbuckets = 1
	Starting first half-transformation.
	Sorting half-transformed TPDM.
	First half integral transformation complete.


  -Nuclear Repulsion Energy 1st Derivatives:
     Atom            X                  Y                   Z
    ------   -----------------  -----------------  -----------------
       1        0.000000000000     0.000000000000    13.091333220759
       2        0.000000000000     0.000000000000   -13.091333220759


  -One-electron contribution to gradient:
     Atom            X                  Y                   Z
    ------   -----------------  -----------------  -----------------
       1        0.000000000000     0.000000000000   -23.803168741525
       2        0.000000000000     0.000000000000    23.803168741559


  -Lagrangian contribution to gradient:
     Atom            X                  Y                   Z
    ------   -----------------  -----------------  -----------------
       1        0.000000000000     0.000000000000    -0.033291077684
       2        0.000000000000     0.000000000000     0.033291077684


  -Two-electron contribution to gradient:
     Atom            X                  Y                   Z
    ------   -----------------  -----------------  -----------------
       1        0.000000000000     0.000000000000    10.852533483748
       2        0.000000000000     0.000000000000   -10.852533483748


  -Total gradient:
     Atom            X                  Y                   Z
    ------   -----------------  -----------------  -----------------
       1        0.000000000000     0.000000000000     0.107406885297
       2        0.000000000000     0.000000000000    -0.107406885263


			-----------------------------------------
			 OPTKING 2.0: for geometry optimizations 
			  - R.A. King,  Bethel University        
			-----------------------------------------

	Internal coordinates to be generated automatically.
	Detected frag 1 with atoms:  1 2
	---Fragment 1 Bond Connectivity---
	 1 : 2
	 2 : 1

	---Fragment 1 Geometry and Gradient---
	 NA          0.0000000000        0.0000000000       -2.2803011014
	 CL          0.0000000000        0.0000000000        1.4991511643
	             0.0000000000        0.0000000000        0.1074068853
	             0.0000000000        0.0000000000       -0.1074068853

	Previous optimization step data not found.  Starting new optimization.

	---Fragment 1 Intrafragment Coordinates---
	 - Coordinate -           - BOHR/RAD -       - ANG/DEG -
	 R(1,2)           =         3.779452	       2.000000

	Current energy   :      -621.6874969403

	Generating empirical Hessian (Schlegel '84) for each fragment.
	Taking RFO optimization step.
	Going to follow RFO solution 1.
	Using RFO vector 1.
	Norm of target step-size    0.28525
	Projected energy change by RFO approximation:         0.0092894814

	Back-transformation to cartesian coordinates...
	Successfully converged to displaced geometry.

	--- Internal Coordinate Step in ANG or DEG, aJ/ANG or AJ/DEG ---
	 ---------------------------------------------------------------------------
	   Coordinate                Previous        Force       Change         New 
	   ----------                --------       ------       ------       ------
	    1 R(1,2)          =      2.000000     0.884895     0.150946     2.150946
	 ---------------------------------------------------------------------------
	Successfully symmetrized geometry.

  ==> Convergence Check <==

  Measures of convergence in internal coordinates in au.
  Criteria marked as inactive (o), active & met (*), and active & unmet ( ).
  --------------------------------------------------------------------------------------------- ~
   Step     Total Energy     Delta E     MAX Force     RMS Force      MAX Disp      RMS Disp    ~
  --------------------------------------------------------------------------------------------- ~
    Convergence Criteria    1.00e-06 *    3.00e-04 *             o    1.20e-03 *             o  ~
  --------------------------------------------------------------------------------------------- ~
      1    -621.68749694   -6.22e+02      1.07e-01      1.07e-01 o    2.85e-01      2.85e-01 o  ~
  ---------------------------------------------------------------------------------------------

	Writing optimization data to binary file.
	Structure for next step:
	Cartesian Geometry (in Angstrom)
	   NA     0.0000000000   0.0000000000  -1.2821563151
	   CL     0.0000000000   0.0000000000   0.8687895719
			--------------------------
			 OPTKING Finished Execution 
			--------------------------

    Structure for next step:
    Molecular point group: c2v
    Full point group: C_inf_v

    Geometry (in Angstrom), charge = 0, multiplicity = 1:

    NA           0.000000000000     0.000000000000    -1.297755317492
    CL           0.000000000000     0.000000000000     0.853190569433

gradient() will perform analytic gradient computation.

*** tstart() called on odysseus
*** at Sun Jun 25 23:04:23 2017

   => Loading Basis Set <=

    Name: JUN-CC-PVTZ
    Role: ORBITAL
    Keyword: BASIS
    atoms 1 entry NA         line   423 file /home/eric/opt/apps/python/psi4conda/share/psi4/basis/jun-cc-pvtz.gbs 
    atoms 2 entry CL         line   910 file /home/eric/opt/apps/python/psi4conda/share/psi4/basis/jun-cc-pvtz.gbs 


         ---------------------------------------------------------
                                   SCF
            by Justin Turney, Rob Parrish, and Andy Simmonett
                              RHF Reference
                        4 Threads,    500 MiB Core
         ---------------------------------------------------------

  ==> Geometry <==

    Molecular point group: c2v
    Full point group: C_inf_v

    Geometry (in Angstrom), charge = 0, multiplicity = 1:

       Center              X                  Y                   Z               Mass       
    ------------   -----------------  -----------------  -----------------  -----------------
          NA          0.000000000000     0.000000000000    -1.297755317492    22.989769280870
          CL          0.000000000000     0.000000000000     0.853190569433    34.968852682000

  Running in c2v symmetry.

  Rotational constants: A = ************  B =      0.26269  C =      0.26269 [cm^-1]
  Rotational constants: A = ************  B =   7875.17624  C =   7875.17624 [MHz]
  Nuclear repulsion =   46.005870537184187

  Charge       = 0
  Multiplicity = 1
  Electrons    = 28
  Nalpha       = 14
  Nbeta        = 14

  ==> Algorithm <==

  SCF Algorithm Type is DIRECT.
  DIIS enabled.
  MOM disabled.
  Fractional occupation disabled.
  Guess Type is READ.
  Energy threshold   = 1.00e-10
  Density threshold  = 1.00e-10
  Integral threshold = 0.00e+00

  ==> Primary Basis <==

  Basis Set: JUN-CC-PVTZ
    Blend: JUN-CC-PVTZ
    Number of shells: 30
    Number of basis function: 86
    Number of Cartesian functions: 98
    Spherical Harmonics?: true
    Max angular momentum: 3

   => Loading Basis Set <=

    Name: (JUN-CC-PVTZ AUX)
    Role: JKFIT
    Keyword: DF_BASIS_SCF
    atoms 1 entry NA         line   502 file /home/eric/opt/apps/python/psi4conda/share/psi4/basis/def2-qzvpp-jkfit.gbs 
    atoms 2 entry CL         line   787 file /home/eric/opt/apps/python/psi4conda/share/psi4/basis/jun-cc-pvtz-jkfit.gbs 

  Reading orbitals from file 180, no projection.

  ==> Pre-Iterations <==

   -------------------------------------------------------
    Irrep   Nso     Nmo     Nalpha   Nbeta   Ndocc  Nsocc
   -------------------------------------------------------
     A1        38      38       0       0       0       0
     A2         8       8       0       0       0       0
     B1        20      20       0       0       0       0
     B2        20      20       0       0       0       0
   -------------------------------------------------------
    Total      86      86      14      14      14       0
   -------------------------------------------------------

  Starting with a DF guess...

  ==> Integral Setup <==

  ==> DFJK: Density-Fitted J/K Matrices <==

    J tasked:                  Yes
    K tasked:                  Yes
    wK tasked:                  No
    OpenMP threads:              4
    Integrals threads:           4
    Memory (MB):               375
    Algorithm:                Core
    Integral Cache:           NONE
    Schwarz Cutoff:          1E-12
    Fitting Condition:       1E-12

   => Auxiliary Basis Set <=

  Basis Set: (JUN-CC-PVTZ AUX)
    Blend: DEF2-QZVPP-JKFIT + JUN-CC-PVTZ-JKFIT
    Number of shells: 75
    Number of basis function: 249
    Number of Cartesian functions: 302
    Spherical Harmonics?: true
    Max angular momentum: 4

  Minimum eigenvalue in the overlap matrix is 2.7706020977E-04.
  Using Symmetric Orthogonalization.

  SCF Guess: Orbitals guess was supplied from a previous computation.

  ==> Iterations <==

                           Total Energy        Delta E     RMS |[F,P]|

   @DF-RHF iter   0:  -621.46033051536904   -6.21460e+02   9.17015e-03 
   @DF-RHF iter   1:  -621.44423096180071    1.60996e-02   6.33664e-04 
   @DF-RHF iter   2:  -621.44434115359707   -1.10192e-04   1.79009e-04 DIIS
   @DF-RHF iter   3:  -621.44435318046726   -1.20269e-05   4.85569e-05 DIIS
   @DF-RHF iter   4:  -621.44435532140812   -2.14094e-06   1.33737e-05 DIIS
   @DF-RHF iter   5:  -621.44435559635974   -2.74952e-07   3.05683e-06 DIIS
   @DF-RHF iter   6:  -621.44435560891998   -1.25602e-08   6.46798e-07 DIIS
   @DF-RHF iter   7:  -621.44435560948875   -5.68775e-10   1.00923e-07 DIIS
   @DF-RHF iter   8:  -621.44435560950308   -1.43245e-11   2.00597e-08 DIIS
   @DF-RHF iter   9:  -621.44435560950421   -1.13687e-12   2.53059e-09 DIIS
   @DF-RHF iter  10:  -621.44435560950410    1.13687e-13   4.53680e-10 DIIS
   @DF-RHF iter  11:  -621.44435560950387    2.27374e-13   6.07618e-11 DIIS

  DF guess converged.

  ==> Integral Setup <==

  ==> DirectJK: Integral-Direct J/K Matrices <==

    J tasked:                  Yes
    K tasked:                  Yes
    wK tasked:                  No
    Integrals threads:           4
    Schwarz Cutoff:          1E-12

   @RHF iter  12:  -621.44438809786004   -3.24884e-05   5.87310e-06 DIIS
   @RHF iter  13:  -621.44438811155146   -1.36914e-08   9.98727e-07 DIIS
   @RHF iter  14:  -621.44438811197699   -4.25530e-10   2.44132e-07 DIIS
   @RHF iter  15:  -621.44438811200325   -2.62617e-11   4.82289e-08 DIIS
   @RHF iter  16:  -621.44438811200644   -3.18323e-12   1.34621e-08 DIIS
   @RHF iter  17:  -621.44438811200644    0.00000e+00   4.61040e-09 DIIS
   @RHF iter  18:  -621.44438811200689   -4.54747e-13   6.67828e-10 DIIS
   @RHF iter  19:  -621.44438811200689    0.00000e+00   7.73491e-11 DIIS

  ==> Post-Iterations <==

    Orbital Energies (a.u.)
    -----------------------

    Doubly Occupied:                                                      

       1A1  -104.706048     2A1   -40.478301     3A1   -10.433233  
       4A1    -7.899467     1B2    -7.899016     1B1    -7.899016  
       5A1    -2.806678     6A1    -1.532219     2B2    -1.528466  
       2B1    -1.528466     7A1    -0.952450     8A1    -0.378878  
       3B1    -0.363591     3B2    -0.363591  

    Virtual:                                                              

       9A1    -0.016185     4B2     0.010611     4B1     0.010611  
      10A1     0.013774    11A1     0.024599     5B2     0.035880  
       5B1     0.035880    12A1     0.048509    13A1     0.064656  
       1A2     0.064656     6B2     0.071756     6B1     0.071756  
      14A1     0.076517    15A1     0.110459     7B2     0.111831  
       7B1     0.111831    16A1     0.168915    17A1     0.193821  
       8B2     0.200042     8B1     0.200042     2A2     0.213612  
      18A1     0.213612     9B1     0.246646     9B2     0.246646  
      19A1     0.248244    10B2     0.329025    10B1     0.329025  
      20A1     0.332959     3A2     0.428567    21A1     0.428567  
      22A1     0.455337    11B1     0.495106    11B2     0.495106  
      23A1     0.532126    24A1     0.550864     4A2     0.550864  
      12B1     0.552901    12B2     0.552901    25A1     0.591958  
      13B2     0.594392    13B1     0.594392    26A1     0.647957  
       5A2     0.647957    14B2     0.754995    14B1     0.754995  
      15B2     0.872542    15B1     0.872542    27A1     0.927595  
      28A1     0.981625     6A2     1.042720    29A1     1.042720  
      16B1     1.114458    16B2     1.114458    30A1     1.176675  
      31A1     1.678243    32A1     2.001319    17B1     2.518278  
      17B2     2.518278    33A1     2.551833     7A2     2.551833  
      34A1     2.584642    35A1     2.642532     8A2     2.642532  
      18B2     2.646717    18B1     2.646717    19B2     2.703682  
      19B1     2.703682    36A1     2.718229    20B2     2.862134  
      20B1     2.862134    37A1     3.079887    38A1     6.103816  

    Final Occupation by Irrep:
             A1    A2    B1    B2 
    DOCC [     8,    0,    3,    3 ]

  Energy converged.

  @RHF Final Energy:  -621.44438811200689

   => Energetics <=

    Nuclear Repulsion Energy =             46.0058705371841867
    One-Electron Energy =                -957.3616721441580921
    Two-Electron Energy =                 289.9114134949670074
    DFT Exchange-Correlation Energy =       0.0000000000000000
    Empirical Dispersion Energy =           0.0000000000000000
    PCM Polarization Energy =               0.0000000000000000
    EFP Energy =                            0.0000000000000000
    Total Energy =                       -621.4443881120068909



Properties will be evaluated at   0.000000,   0.000000,   0.000000 Bohr

Properties computed using the SCF density matrix

  Nuclear Dipole Moment: (a.u.)
     X:     0.0000      Y:     0.0000      Z:     0.4326

  Electronic Dipole Moment: (a.u.)
     X:     0.0000      Y:     0.0000      Z:    -3.7660

  Dipole Moment: (a.u.)
     X:     0.0000      Y:     0.0000      Z:    -3.3334     Total:     3.3334

  Dipole Moment: (Debye)
     X:     0.0000      Y:     0.0000      Z:    -8.4726     Total:     8.4726


*** tstop() called on odysseus at Sun Jun 25 23:04:37 2017
Module time:
	user time   =      56.29 seconds =       0.94 minutes
	system time =       0.18 seconds =       0.00 minutes
	total time  =         14 seconds =       0.23 minutes
Total time:
	user time   =     153.43 seconds =       2.56 minutes
	system time =       3.79 seconds =       0.06 minutes
	total time  =         74 seconds =       1.23 minutes
 MINTS: Wrapper to libmints.
   by Justin Turney

   Calculation information:
      Number of threads:                 4
      Number of atoms:                   2
      Number of AO shells:              30
      Number of SO shells:              30
      Number of primitives:            131
      Number of atomic orbitals:        98
      Number of basis functions:        86

      Number of irreps:                  4
      Integral cutoff                 0.00e+00
      Number of functions per irrep: [  38    8   20   20 ]

 OEINTS: Overlap, kinetic, potential, dipole, and quadrupole integrals
         stored in file 35.

      Computing two-electron integrals...done
      Computed 1548871 non-zero two-electron integrals.
        Stored in file 33.


*** tstart() called on odysseus
*** at Sun Jun 25 23:04:41 2017


	Wfn Parameters:
	--------------------
	Wavefunction         = CCSD
	Number of irreps     = 4
	Number of MOs        = 86
	Number of active MOs = 86
	AO-Basis             = NONE
	Semicanonical        = false
	Reference            = RHF
	Print Level          = 1

	IRREP	# MOs	# FZDC	# DOCC	# SOCC	# VIRT	# FZVR
	-----	-----	------	------	------	------	------
	 A1	   38	    0	    8	    0	    30	    0
	 A2	   8	    0	    0	    0	    8	    0
	 B1	   20	    0	    3	    0	    17	    0
	 B2	   20	    0	    3	    0	    17	    0
	Transforming integrals...
	IWL integrals will be deleted.
	(OO|OO)...
	Presorting SO-basis two-electron integrals.
	Sorting File: SO Ints (nn|nn) nbuckets = 1
	Transforming the one-electron integrals and constructing Fock matrices
	Starting first half-transformation.
	Sorting half-transformed integrals.
	First half integral transformation complete.
	Starting second half-transformation.
	Two-electron integral transformation complete.
	(OO|OV)...
	Starting second half-transformation.
	Two-electron integral transformation complete.
	(OO|VV)...
	Starting second half-transformation.
	Two-electron integral transformation complete.
	(OV|OO)...
	Starting first half-transformation.
	Sorting half-transformed integrals.
	First half integral transformation complete.
	Starting second half-transformation.
	Two-electron integral transformation complete.
	(OV|OV)...
	Starting second half-transformation.
	Two-electron integral transformation complete.
	(OV|VV)...
	Starting second half-transformation.
	Two-electron integral transformation complete.
	(VV|OO)...
	Starting first half-transformation.
	Sorting half-transformed integrals.
	First half integral transformation complete.
	Starting second half-transformation.
	Two-electron integral transformation complete.
	(VV|OV)...
	Starting second half-transformation.
	Two-electron integral transformation complete.
	(VV|VV)...
	Starting second half-transformation.
	Two-electron integral transformation complete.
	Frozen core energy     =      0.00000000000000

	Size of irrep 0 of <ab|cd> integrals:      2.378 (MW) /     19.022 (MB)
	Size of irrep 1 of <ab|cd> integrals:      1.119 (MW) /      8.955 (MB)
	Size of irrep 2 of <ab|cd> integrals:      1.669 (MW) /     13.354 (MB)
	Size of irrep 3 of <ab|cd> integrals:      1.669 (MW) /     13.354 (MB)
	Total:                                     6.836 (MW) /     54.685 (MB)

	Size of irrep 0 of <ia|bc> integrals:      0.527 (MW) /      4.219 (MB)
	Size of irrep 1 of <ia|bc> integrals:      0.176 (MW) /      1.405 (MB)
	Size of irrep 2 of <ia|bc> integrals:      0.323 (MW) /      2.584 (MB)
	Size of irrep 3 of <ia|bc> integrals:      0.323 (MW) /      2.584 (MB)
	Total:                                     1.349 (MW) /     10.792 (MB)

	Size of irrep 0 of tijab amplitudes:       0.126 (MW) /      1.012 (MB)
	Size of irrep 1 of tijab amplitudes:       0.019 (MW) /      0.152 (MB)
	Size of irrep 2 of tijab amplitudes:       0.062 (MW) /      0.496 (MB)
	Size of irrep 3 of tijab amplitudes:       0.062 (MW) /      0.496 (MB)
	Total:                                     0.270 (MW) /      2.156 (MB)

	Nuclear Rep. energy          =     46.00587053718419
	SCF energy                   =   -621.44438811200689
	One-electron energy          =   -957.36167213669978
	Two-electron energy          =    289.91141348750853
	Reference energy             =   -621.44438811200712

*** tstop() called on odysseus at Sun Jun 25 23:04:42 2017
Module time:
	user time   =       0.68 seconds =       0.01 minutes
	system time =       0.26 seconds =       0.00 minutes
	total time  =          1 seconds =       0.02 minutes
Total time:
	user time   =     159.06 seconds =       2.65 minutes
	system time =       4.09 seconds =       0.07 minutes
	total time  =         79 seconds =       1.32 minutes

*** tstart() called on odysseus
*** at Sun Jun 25 23:04:42 2017

            **************************
            *                        *
            *        CCENERGY        *
            *                        *
            **************************

    Nuclear Rep. energy (wfn)     =   46.005870537184187
    SCF energy          (wfn)     = -621.444388112006891
    Reference energy    (file100) = -621.444388112007118

    Input parameters:
    -----------------
    Wave function   =     CCSD
    Reference wfn   =     RHF
    Brueckner       =     No
    Memory (Mbytes) =     524.3
    Maxiter         =     50
    R_Convergence   =     1.0e-07
    E_Convergence   =     1.0e-08
    Restart         =     Yes
    DIIS            =     Yes
    AO Basis        =     NONE
    ABCD            =     NEW
    Cache Level     =     2
    Cache Type      =     LOW
    Print Level     =     1
    Num. of threads =     4
    # Amps to Print =     10
    Print MP2 Amps? =     No
    Analyze T2 Amps =     No
    Print Pair Ener =     No
    Local CC        =     No
    SCS-MP2         =     False
    SCSN-MP2        =     False
    SCS-CCSD        =     False

    Using old T1 amplitudes.
    Using old T2 amplitudes.

MP2 correlation energy -0.2497568241425778
                Solving CC Amplitude Equations
                ------------------------------
  Iter             Energy              RMS        T1Diag      D1Diag    New D1Diag    D2Diag
  ----     ---------------------    ---------   ----------  ----------  ----------   --------
     0        -0.196882487492006    0.000e+00    0.003951    0.014124    0.014124    0.140407
     1        -0.262703984241774    1.786e-01    0.007917    0.026714    0.026714    0.140342
     2        -0.263090085920215    4.222e-02    0.004146    0.015259    0.015259    0.139510
     3        -0.264188218292493    1.302e-02    0.003783    0.013916    0.013916    0.140523
     4        -0.264370546346201    5.113e-03    0.003861    0.014002    0.014002    0.140824
     5        -0.264348009592490    1.790e-03    0.003930    0.013976    0.013976    0.140887
     6        -0.264325531777382    5.210e-04    0.003944    0.013865    0.013865    0.140899
     7        -0.264324349232512    1.784e-04    0.003949    0.013829    0.013829    0.140900
     8        -0.264326370556469    6.923e-05    0.003950    0.013800    0.013800    0.140900
     9        -0.264326480697681    2.358e-05    0.003950    0.013788    0.013788    0.140900
    10        -0.264326346930033    7.919e-06    0.003949    0.013782    0.013782    0.140900
    11        -0.264326324752696    2.992e-06    0.003949    0.013780    0.013780    0.140900
    12        -0.264326300984268    1.228e-06    0.003949    0.013779    0.013779    0.140900
    13        -0.264326288986508    4.800e-07    0.003949    0.013779    0.013779    0.140900
    14        -0.264326286780803    1.995e-07    0.003949    0.013778    0.013778    0.140900
    15        -0.264326286807276    8.415e-08    0.003949    0.013778    0.013778    0.140900

    Iterations converged.


    Largest TIA Amplitudes:
              7   0         0.0080797105
              7   7        -0.0066679028
              7   3         0.0049775895
              7   1        -0.0049073492
              9  44         0.0047259403
             12  61         0.0047259403
             10  43         0.0032706347
             13  60         0.0032706347
              6  18         0.0031616587
              6  22        -0.0030969076

    Largest TIjAb Amplitudes:
      7   7  14  14        -0.0247747166
     10  10  20  20        -0.0219152323
     10  10  35  35        -0.0219152323
     13  13  20  20        -0.0219152323
     13  13  35  35        -0.0219152323
     10  10  12  12        -0.0196704742
     10  10  32  32        -0.0196704742
     13  13  12  12        -0.0196704742
     13  13  32  32        -0.0196704742
      7   7  19  19        -0.0194581230

    SCF energy       (wfn)                    = -621.444388112006891
    Reference energy (file100)                = -621.444388112007118

    Opposite-spin MP2 correlation energy      =   -0.185267368757645
    Same-spin MP2 correlation energy          =   -0.064489455384933
    MP2 correlation energy                    =   -0.249756824142578
      * MP2 total energy                      = -621.694144936149655

    Opposite-spin CCSD correlation energy     =   -0.203113018151856
    Same-spin CCSD correlation energy         =   -0.061213268648003
    CCSD correlation energy                   =   -0.264326286807276
      * CCSD total energy                     = -621.708714398814436


*** tstop() called on odysseus at Sun Jun 25 23:04:46 2017
Module time:
	user time   =       2.21 seconds =       0.04 minutes
	system time =       1.18 seconds =       0.02 minutes
	total time  =          4 seconds =       0.07 minutes
Total time:
	user time   =     161.27 seconds =       2.69 minutes
	system time =       5.27 seconds =       0.09 minutes
	total time  =         83 seconds =       1.38 minutes

*** tstart() called on odysseus
*** at Sun Jun 25 23:04:46 2017


			**************************
			*                        *
			*         CCHBAR         *
			*                        *
			**************************


*** tstop() called on odysseus at Sun Jun 25 23:04:47 2017
Module time:
	user time   =       0.32 seconds =       0.01 minutes
	system time =       0.15 seconds =       0.00 minutes
	total time  =          1 seconds =       0.02 minutes
Total time:
	user time   =     161.60 seconds =       2.69 minutes
	system time =       5.42 seconds =       0.09 minutes
	total time  =         84 seconds =       1.40 minutes

*** tstart() called on odysseus
*** at Sun Jun 25 23:04:47 2017


			**************************
			*        CCLAMBDA        *
			**************************


	Nuclear Rep. energy (wfn)     =   46.005870537184187
	Reference           (wfn)     =                    0
	SCF energy          (wfn)     = -621.444388112006891
	Reference energy    (CC_INFO) = -621.444388112007118
	CCSD energy         (CC_INFO) =   -0.264326286807276
	Total CCSD energy   (CC_INFO) = -621.708714398814436

	Input parameters:
	-----------------
	Maxiter           =     50
	Convergence       = 1.0e-07
	Restart           =     No
	Cache Level       =     2
	Model III         =     No
	DIIS              =     Yes
	AO Basis          =     No
	ABCD              =     NEW
	Local CC          =     No
	Paramaters for left-handed eigenvectors:
	    Irr   Root  Ground-State?    EOM energy        R0
	  1   0     0        Yes       0.0000000000   1.0000000000
	Labels for eigenvector 1:
	LIA 0 -1, Lia 0 -1, LIJAB 0 -1, Lijab 0 -1, LIjAb 0 -1, 2LIjAb - LIjbA 0 -1
	Symmetry of left-hand state: A1
	Symmetry of left-hand eigenvector: A1

	          Solving Lambda Equations
	          ------------------------
	Iter     PseudoEnergy or Norm         RMS  
	----     ---------------------     --------
	   0        -0.264353692810068    5.612e-08
	   1        -0.257684061749913    9.191e-03
	   2        -0.257072825961766    1.657e-03
	   3        -0.256977468750162    8.047e-04
	   4        -0.256964727839312    3.208e-04
	   5        -0.256975809894590    1.099e-04
	   6        -0.256976553966078    3.661e-05
	   7        -0.256975661680675    1.454e-05
	   8        -0.256975551009572    5.277e-06
	   9        -0.256975596972835    1.908e-06
	  10        -0.256975604898180    6.174e-07
	  11        -0.256975607903376    2.035e-07
	  12        -0.256975603069854    6.708e-08

	Largest LIA Amplitudes:
	          7   0         0.0062578967
	          7   7        -0.0050383510
	          9  44         0.0039325682
	         12  61         0.0039325682
	          7   3         0.0038528445
	          7   1        -0.0038407071
	          6  18         0.0029966299
	          6  22        -0.0028251391
	          6  11        -0.0027348213
	          5  13         0.0025866556

	Largest LIjAb Amplitudes:
	  7   7  14  14        -0.0239422681
	 10  10  20  20        -0.0212506774
	 10  10  35  35        -0.0212506774
	 13  13  20  20        -0.0212506774
	 13  13  35  35        -0.0212506774
	 10  10  12  12        -0.0190311234
	 10  10  32  32        -0.0190311234
	 13  13  12  12        -0.0190311234
	 13  13  32  32        -0.0190311234
	  7   7  19  19        -0.0188492163

	Iterations converged.

	Overlap <L|e^T> =        0.90990693311

*** tstop() called on odysseus at Sun Jun 25 23:04:48 2017
Module time:
	user time   =       1.20 seconds =       0.02 minutes
	system time =       0.47 seconds =       0.01 minutes
	total time  =          1 seconds =       0.02 minutes
Total time:
	user time   =     162.80 seconds =       2.71 minutes
	system time =       5.89 seconds =       0.10 minutes
	total time  =         85 seconds =       1.42 minutes

*** tstart() called on odysseus
*** at Sun Jun 25 23:04:48 2017


			**************************
			*                        *
			*        CCDENSITY       *
			*                        *
			**************************


	Input parameters:
	-----------------
	Wave function    =   CCSD
	Reference wfn    =   RHF
	Dertype          = 1
	Tolerance        = 1.0e-14
	Cache Level      = 2
	AO Basis         = No
	OPDM Only        = No
	Relax OPDM       = Yes
	Compute Xi       = No
	Use Zeta         = No
	Xi connected     = Yes
	Compute NO       = No

	Nuclear Rep. energy (wfn)     =   46.005870537184187
	SCF energy          (wfn)     = -621.444388112006891
	Reference energy    (file100) = -621.444388112007118
	CCSD energy         (CC_INFO) =   -0.264326286807276
	Total CCSD energy   (CC_INFO) = -621.708714398814436
	Number of States = 1

	Ground?  State     EOM Energy       R0
	  Yes     0 A1    0.0000000000   1.00000000

	Energies re-computed from CC density:
	-------------------------------------
	One-electron energy        =    0.277422072431048
	IJKL energy                =    0.050383467977266
	IJKA energy                =   -0.001060933058876
	IJAB energy                =   -0.514072592087275
	IBJA energy                =   -0.133201172149780
	CIAB energy                =   -0.000696239768150
	ABCD energy                =    0.056899110747923
	Total two-electron energy  =   -0.541748358338892
	CCSD    correlation energy =   -0.264326285907843
	Total CCSD    energy       = -621.708714397914946

	Virial Theorem Data:
	--------------------
	Kinetic energy (ref)   =  621.681295805659715
	Kinetic energy (corr)  =   -0.195428411618724
	Kinetic energy (total) =  621.485867394040952
	-V/T (ref)             =    1.999618924205616
	-V/T (corr)            =   -0.352547895251641
	-V/T (total)           =    2.000358571315077

	Energies re-computed from Fock-adjusted CC density:
	---------------------------------------------------
	One-electron energy        =    0.412621038104394
	IJKL energy                =   -2.189015723977745
	IJKA energy                =   -0.067548727671418
	IJAB energy                =   -0.514072592087275
	IBJA energy                =    2.037486848764109
	CIAB energy                =   -0.000696239768150
	ABCD energy                =    0.056899110747923
	Total two-electron energy  =   -0.676947323992556
	   CCSD correlation energy =   -0.264326285888161
	Total    CCSD energy       = -621.708714397895278

	Energies re-computed from Mulliken density:
	-------------------------------------------
	One-electron energy        =    0.412621038104394
	IJKL energy                =   -2.189015723977745
	IJKA energy                =   -0.067548727671418
	IJAB energy                =   -0.491197962191926
	IBJA energy                =    2.014612218868765
	CIAB energy                =   -0.000696239768150
	ABCD energy                =    0.056899110747923
	Total two-electron energy  =   -0.676947323992552
	   CCSD correlation energy =   -0.264326285888157
	Total    CCSD energy       = -621.708714397895278


Properties will be evaluated at   0.000000,   0.000000,   0.000000 Bohr

Properties computed using the CC density matrix

  Nuclear Dipole Moment: (a.u.)
     X:     0.0000      Y:     0.0000      Z:     0.4326

  Electronic Dipole Moment: (a.u.)
     X:     0.0000      Y:     0.0000      Z:    -3.7169

  Dipole Moment: (a.u.)
     X:     0.0000      Y:     0.0000      Z:    -3.2843     Total:     3.2843

  Dipole Moment: (Debye)
     X:     0.0000      Y:     0.0000      Z:    -8.3478     Total:     8.3478

  Quadrupole Moment: (Debye Ang)
    XX:   -19.4020     YY:   -19.4020     ZZ:   -12.1936
    XY:     0.0000     XZ:     0.0000     YZ:     0.0000

  Traceless Quadrupole Moment: (Debye Ang)
    XX:    -2.4028     YY:    -2.4028     ZZ:     4.8056
    XY:     0.0000     XZ:     0.0000     YZ:     0.0000

  Mulliken Charges: (a.u.)
   Center  Symbol    Alpha    Beta     Spin     Total
       1    NA     5.23253  5.23253  0.00000  0.53494
       2    CL     8.76747  8.76747  0.00000 -0.53494

   Total alpha = 14.00000, Total beta = 14.00000, Total charge =  0.00000

  Natural Orbital Occupations:

  Total Occupations:
  HONO-2 :    8 A1    1.951
  HONO-1 :    3 B1    1.951
  HONO-0 :    3 B2    1.951
  LUNO+0 :    4 B1    0.021
  LUNO+1 :    4 B2    0.021
  LUNO+2 :    9 A1    0.020
  LUNO+3 :   10 A1    0.020


*** tstop() called on odysseus at Sun Jun 25 23:04:58 2017
Module time:
	user time   =       6.68 seconds =       0.11 minutes
	system time =       1.02 seconds =       0.02 minutes
	total time  =         10 seconds =       0.17 minutes
Total time:
	user time   =     169.48 seconds =       2.82 minutes
	system time =       6.91 seconds =       0.12 minutes
	total time  =         95 seconds =       1.58 minutes
  Cartesian Displacement SALCs
  By SALC:
  Number of SALCs: 2, nirreps: 1
  Project out translations: False
  Project out rotations: False
	irrep = 0, ncomponent = 1
		0: atom 0, direction z, coef 1.000000
	irrep = 0, ncomponent = 1
		0: atom 1, direction z, coef 1.000000

  By Atomic Center:
  Number of atomic centers: 2
   Atomic Center 0:
	x component, size = 0
	y component, size = 0
	z component, size = 1
		0: salc 0, irrep 0, coef 1.000000
   Atomic Center 1:
	x component, size = 0
	y component, size = 0
	z component, size = 1
		0: salc 1, irrep 0, coef 1.000000

    Molecular point group: c2v
    Full point group: C_inf_v

    Geometry (in Bohr), charge = 0, multiplicity = 1:

       Center              X                  Y                   Z       
    ------------   -----------------  -----------------  -----------------
          NA          0.000000000000     0.000000000000    -2.452402137556
          CL          0.000000000000     0.000000000000     1.612296515388

	Presorting MO-basis TPDM.
	Sorting File: MO TPDM (AA|AA) nbuckets = 1
	Starting first half-transformation.
	Sorting half-transformed TPDM.
	First half integral transformation complete.


  -Nuclear Repulsion Energy 1st Derivatives:
     Atom            X                  Y                   Z
    ------   -----------------  -----------------  -----------------
       1        0.000000000000     0.000000000000    11.318396384407
       2        0.000000000000     0.000000000000   -11.318396384407


  -One-electron contribution to gradient:
     Atom            X                  Y                   Z
    ------   -----------------  -----------------  -----------------
       1        0.000000000000     0.000000000000   -21.352973237916
       2        0.000000000000     0.000000000000    21.352973237911


  -Lagrangian contribution to gradient:
     Atom            X                  Y                   Z
    ------   -----------------  -----------------  -----------------
       1        0.000000000000     0.000000000000    -0.005867411023
       2        0.000000000000     0.000000000000     0.005867411023


  -Two-electron contribution to gradient:
     Atom            X                  Y                   Z
    ------   -----------------  -----------------  -----------------
       1        0.000000000000     0.000000000000    10.087602146695
       2        0.000000000000     0.000000000000   -10.087602146695


  -Total gradient:
     Atom            X                  Y                   Z
    ------   -----------------  -----------------  -----------------
       1        0.000000000000     0.000000000000     0.047157882164
       2        0.000000000000     0.000000000000    -0.047157882168


			-----------------------------------------
			 OPTKING 2.0: for geometry optimizations 
			  - R.A. King,  Bethel University        
			-----------------------------------------

	Previous internal coordinate definitions found.
	---Fragment 1 Geometry and Gradient---
	 NA          0.0000000000        0.0000000000       -2.4524021376
	 CL          0.0000000000        0.0000000000        1.6122965154
	             0.0000000000        0.0000000000        0.0471578822
	             0.0000000000        0.0000000000       -0.0471578822

	---Fragment 1 Intrafragment Coordinates---
	 - Coordinate -           - BOHR/RAD -       - ANG/DEG -
	 R(1,2)           =         4.064699	       2.150946

	Current energy   :      -621.7087143988

	Energy change for the previous step:
		Projected    :         0.0092894814
		Actual       :        -0.0212174585

	Performing BFGS update.
	Previous computed or guess Hessian on step 1.
	Steps to be used in Hessian update: 1
	Taking RFO optimization step.
	Going to follow RFO solution 1.
	Using RFO vector 1.
	Norm of target step-size    0.21313
	Projected energy change by RFO approximation:         0.0121106241

	Back-transformation to cartesian coordinates...
	Successfully converged to displaced geometry.

	--- Internal Coordinate Step in ANG or DEG, aJ/ANG or AJ/DEG ---
	 ---------------------------------------------------------------------------
	   Coordinate                Previous        Force       Change         New 
	   ----------                --------       ------       ------       ------
	    1 R(1,2)          =      2.150946     0.388521     0.112781     2.263727
	 ---------------------------------------------------------------------------
	Successfully symmetrized geometry.

  ==> Convergence Check <==

  Measures of convergence in internal coordinates in au.
  Criteria marked as inactive (o), active & met (*), and active & unmet ( ).
  ---------------------------------------------------------------------------------------------
   Step     Total Energy     Delta E     MAX Force     RMS Force      MAX Disp      RMS Disp   
  ---------------------------------------------------------------------------------------------
    Convergence Criteria    1.00e-06 *    3.00e-04 *             o    1.20e-03 *             o
  ---------------------------------------------------------------------------------------------
      2    -621.70871440   -2.12e-02      4.72e-02      4.72e-02 o    2.13e-01      2.13e-01 o  ~
  ---------------------------------------------------------------------------------------------

	Writing optimization data to binary file.
	Structure for next step:
	Cartesian Geometry (in Angstrom)
	   NA     0.0000000000   0.0000000000  -1.3541459397
	   CL     0.0000000000   0.0000000000   0.9095811917
			--------------------------
			 OPTKING Finished Execution 
			--------------------------

    Structure for next step:
    Molecular point group: c2v
    Full point group: C_inf_v

    Geometry (in Angstrom), charge = 0, multiplicity = 1:

    NA           0.000000000000     0.000000000000    -1.365800943639
    CL           0.000000000000     0.000000000000     0.897926187724

gradient() will perform analytic gradient computation.

*** tstart() called on odysseus
*** at Sun Jun 25 23:05:20 2017

   => Loading Basis Set <=

    Name: JUN-CC-PVTZ
    Role: ORBITAL
    Keyword: BASIS
    atoms 1 entry NA         line   423 file /home/eric/opt/apps/python/psi4conda/share/psi4/basis/jun-cc-pvtz.gbs 
    atoms 2 entry CL         line   910 file /home/eric/opt/apps/python/psi4conda/share/psi4/basis/jun-cc-pvtz.gbs 


         ---------------------------------------------------------
                                   SCF
            by Justin Turney, Rob Parrish, and Andy Simmonett
                              RHF Reference
                        4 Threads,    500 MiB Core
         ---------------------------------------------------------

  ==> Geometry <==

    Molecular point group: c2v
    Full point group: C_inf_v

    Geometry (in Angstrom), charge = 0, multiplicity = 1:

       Center              X                  Y                   Z               Mass       
    ------------   -----------------  -----------------  -----------------  -----------------
          NA          0.000000000000     0.000000000000    -1.365800943639    22.989769280870
          CL          0.000000000000     0.000000000000     0.897926187724    34.968852682000

  Running in c2v symmetry.

  Rotational constants: A = ************  B =      0.23716  C =      0.23716 [cm^-1]
  Rotational constants: A = ************  B =   7110.02452  C =   7110.02452 [MHz]
  Nuclear repulsion =   43.713810129910122

  Charge       = 0
  Multiplicity = 1
  Electrons    = 28
  Nalpha       = 14
  Nbeta        = 14

  ==> Algorithm <==

  SCF Algorithm Type is DIRECT.
  DIIS enabled.
  MOM disabled.
  Fractional occupation disabled.
  Guess Type is READ.
  Energy threshold   = 1.00e-10
  Density threshold  = 1.00e-10
  Integral threshold = 0.00e+00

  ==> Primary Basis <==

  Basis Set: JUN-CC-PVTZ
    Blend: JUN-CC-PVTZ
    Number of shells: 30
    Number of basis function: 86
    Number of Cartesian functions: 98
    Spherical Harmonics?: true
    Max angular momentum: 3

   => Loading Basis Set <=

    Name: (JUN-CC-PVTZ AUX)
    Role: JKFIT
    Keyword: DF_BASIS_SCF
    atoms 1 entry NA         line   502 file /home/eric/opt/apps/python/psi4conda/share/psi4/basis/def2-qzvpp-jkfit.gbs 
    atoms 2 entry CL         line   787 file /home/eric/opt/apps/python/psi4conda/share/psi4/basis/jun-cc-pvtz-jkfit.gbs 

  Reading orbitals from file 180, no projection.

  ==> Pre-Iterations <==

   -------------------------------------------------------
    Irrep   Nso     Nmo     Nalpha   Nbeta   Ndocc  Nsocc
   -------------------------------------------------------
     A1        38      38       0       0       0       0
     A2         8       8       0       0       0       0
     B1        20      20       0       0       0       0
     B2        20      20       0       0       0       0
   -------------------------------------------------------
    Total      86      86      14      14      14       0
   -------------------------------------------------------

  Starting with a DF guess...

  ==> Integral Setup <==

  ==> DFJK: Density-Fitted J/K Matrices <==

    J tasked:                  Yes
    K tasked:                  Yes
    wK tasked:                  No
    OpenMP threads:              4
    Integrals threads:           4
    Memory (MB):               375
    Algorithm:                Core
    Integral Cache:           NONE
    Schwarz Cutoff:          1E-12
    Fitting Condition:       1E-12

   => Auxiliary Basis Set <=

  Basis Set: (JUN-CC-PVTZ AUX)
    Blend: DEF2-QZVPP-JKFIT + JUN-CC-PVTZ-JKFIT
    Number of shells: 75
    Number of basis function: 249
    Number of Cartesian functions: 302
    Spherical Harmonics?: true
    Max angular momentum: 4

  Minimum eigenvalue in the overlap matrix is 3.6225789515E-04.
  Using Symmetric Orthogonalization.

  SCF Guess: Orbitals guess was supplied from a previous computation.

  ==> Iterations <==

                           Total Energy        Delta E     RMS |[F,P]|

   @DF-RHF iter   0:  -621.45429169661645   -6.21454e+02   5.33852e-03 
   @DF-RHF iter   1:  -621.45192708779905    2.36461e-03   2.82766e-04 
   @DF-RHF iter   2:  -621.45195335065603   -2.62629e-05   8.72020e-05 DIIS
   @DF-RHF iter   3:  -621.45195610187386   -2.75122e-06   2.65909e-05 DIIS
   @DF-RHF iter   4:  -621.45195659833428   -4.96460e-07   6.05498e-06 DIIS
   @DF-RHF iter   5:  -621.45195665740198   -5.90677e-08   1.46883e-06 DIIS
   @DF-RHF iter   6:  -621.45195666080974   -3.40776e-09   1.65532e-07 DIIS
   @DF-RHF iter   7:  -621.45195666084601   -3.62661e-11   2.88542e-08 DIIS
   @DF-RHF iter   8:  -621.45195666084737   -1.36424e-12   5.14055e-09 DIIS
   @DF-RHF iter   9:  -621.45195666084703    3.41061e-13   1.05654e-09 DIIS
   @DF-RHF iter  10:  -621.45195666084737   -3.41061e-13   2.21001e-10 DIIS
   @DF-RHF iter  11:  -621.45195666084669    6.82121e-13   2.78515e-11 DIIS

  DF guess converged.

  ==> Integral Setup <==

  ==> DirectJK: Integral-Direct J/K Matrices <==

    J tasked:                  Yes
    K tasked:                  Yes
    wK tasked:                  No
    Integrals threads:           4
    Schwarz Cutoff:          1E-12

   @RHF iter  12:  -621.45198092553471   -2.42647e-05   5.17464e-06 DIIS
   @RHF iter  13:  -621.45198093892520   -1.33905e-08   8.55206e-07 DIIS
   @RHF iter  14:  -621.45198093937438   -4.49177e-10   2.14253e-07 DIIS
   @RHF iter  15:  -621.45198093940098   -2.66027e-11   5.41859e-08 DIIS
   @RHF iter  16:  -621.45198093940394   -2.95586e-12   1.57704e-08 DIIS
   @RHF iter  17:  -621.45198093940417   -2.27374e-13   5.42005e-09 DIIS
   @RHF iter  18:  -621.45198093940394    2.27374e-13   6.10608e-10 DIIS
   @RHF iter  19:  -621.45198093940439   -4.54747e-13   6.83546e-11 DIIS

  ==> Post-Iterations <==

    Orbital Energies (a.u.)
    -----------------------

    Doubly Occupied:                                                      

       1A1  -104.705099     2A1   -40.490662     3A1   -10.431122  
       4A1    -7.897318     1B1    -7.897002     1B2    -7.897002  
       5A1    -2.814837     6A1    -1.538410     2B2    -1.537274  
       2B1    -1.537274     7A1    -0.946985     8A1    -0.374508  
       3B1    -0.357957     3B2    -0.357957  

    Virtual:                                                              

       9A1    -0.018413     4B1     0.010117     4B2     0.010117  
      10A1     0.012857    11A1     0.024558     5B1     0.034782  
       5B2     0.034782    12A1     0.047459    13A1     0.063968  
       1A2     0.063968     6B1     0.071699     6B2     0.071699  
      14A1     0.076768     7B1     0.109416     7B2     0.109416  
      15A1     0.109910    16A1     0.164708    17A1     0.193594  
       8B1     0.200223     8B2     0.200223    18A1     0.211818  
       2A2     0.211818     9B2     0.243795     9B1     0.243795  
      19A1     0.247477    10B1     0.325212    10B2     0.325212  
      20A1     0.331661     3A2     0.428041    21A1     0.428041  
      22A1     0.438861    11B1     0.493007    11B2     0.493007  
      23A1     0.534765    24A1     0.547793     4A2     0.547793  
      12B2     0.549226    12B1     0.549226    13B2     0.586324  
      13B1     0.586324    25A1     0.588069     5A2     0.638620  
      26A1     0.638620    14B1     0.744613    14B2     0.744613  
      15B1     0.868441    15B2     0.868441    27A1     0.884012  
      28A1     0.981473     6A2     1.045656    29A1     1.045656  
      16B1     1.108766    16B2     1.108766    30A1     1.172152  
      31A1     1.644689    32A1     2.105973    17B1     2.522165  
      17B2     2.522165    33A1     2.548638     7A2     2.548638  
      34A1     2.601415    18B2     2.640880    18B1     2.640880  
       8A2     2.645032    35A1     2.645032    19B2     2.699833  
      19B1     2.699833    36A1     2.748727    20B1     2.861684  
      20B2     2.861684    37A1     3.060634    38A1     6.186589  

    Final Occupation by Irrep:
             A1    A2    B1    B2 
    DOCC [     8,    0,    3,    3 ]

  Energy converged.

  @RHF Final Energy:  -621.45198093940439

   => Energetics <=

    Nuclear Repulsion Energy =             43.7138101299101223
    One-Electron Energy =                -952.7647702024100909
    Two-Electron Energy =                 287.5989791330955541
    DFT Exchange-Correlation Energy =       0.0000000000000000
    Empirical Dispersion Energy =           0.0000000000000000
    PCM Polarization Energy =               0.0000000000000000
    EFP Energy =                            0.0000000000000000
    Total Energy =                       -621.4519809394043932



Properties will be evaluated at   0.000000,   0.000000,   0.000000 Bohr

Properties computed using the SCF density matrix

  Nuclear Dipole Moment: (a.u.)
     X:     0.0000      Y:     0.0000      Z:     0.4553

  Electronic Dipole Moment: (a.u.)
     X:     0.0000      Y:     0.0000      Z:    -3.9661

  Dipole Moment: (a.u.)
     X:     0.0000      Y:     0.0000      Z:    -3.5108     Total:     3.5108

  Dipole Moment: (Debye)
     X:     0.0000      Y:     0.0000      Z:    -8.9235     Total:     8.9235


*** tstop() called on odysseus at Sun Jun 25 23:05:36 2017
Module time:
	user time   =      60.64 seconds =       1.01 minutes
	system time =       0.19 seconds =       0.00 minutes
	total time  =         16 seconds =       0.27 minutes
Total time:
	user time   =     252.11 seconds =       4.20 minutes
	system time =       7.27 seconds =       0.12 minutes
	total time  =        133 seconds =       2.22 minutes
 MINTS: Wrapper to libmints.
   by Justin Turney

   Calculation information:
      Number of threads:                 4
      Number of atoms:                   2
      Number of AO shells:              30
      Number of SO shells:              30
      Number of primitives:            131
      Number of atomic orbitals:        98
      Number of basis functions:        86

      Number of irreps:                  4
      Integral cutoff                 0.00e+00
      Number of functions per irrep: [  38    8   20   20 ]

 OEINTS: Overlap, kinetic, potential, dipole, and quadrupole integrals
         stored in file 35.

      Computing two-electron integrals...done
      Computed 1548335 non-zero two-electron integrals.
        Stored in file 33.


*** tstart() called on odysseus
*** at Sun Jun 25 23:05:40 2017


	Wfn Parameters:
	--------------------
	Wavefunction         = CCSD
	Number of irreps     = 4
	Number of MOs        = 86
	Number of active MOs = 86
	AO-Basis             = NONE
	Semicanonical        = false
	Reference            = RHF
	Print Level          = 1

[...]
    AO Basis        =     NONE
    ABCD            =     NEW
    Cache Level     =     2
    Cache Type      =     LOW
    Print Level     =     1
    Num. of threads =     4
    # Amps to Print =     10
    Print MP2 Amps? =     No
    Analyze T2 Amps =     No
    Print Pair Ener =     No
    Local CC        =     No
    SCS-MP2         =     False
    SCSN-MP2        =     False
    SCS-CCSD        =     False

    Using old T1 amplitudes.
    Using old T2 amplitudes.

MP2 correlation energy -0.2492285622551962
                Solving CC Amplitude Equations
                ------------------------------
  Iter             Energy              RMS        T1Diag      D1Diag    New D1Diag    D2Diag
  ----     ---------------------    ---------   ----------  ----------  ----------   --------
     0        -0.263608086453994    0.000e+00    0.004165    0.014423    0.014423    0.141515
     1        -0.263648358348832    1.144e-03    0.004174    0.014427    0.014427    0.141525
     2        -0.263650335738654    2.200e-04    0.004171    0.014431    0.014431    0.141526
     3        -0.263650495200707    6.140e-05    0.004172    0.014439    0.014439    0.141525
     4        -0.263650800378493    2.577e-05    0.004171    0.014441    0.014441    0.141525
     5        -0.263650755656079    9.682e-06    0.004172    0.014445    0.014445    0.141525
     6        -0.263650741288058    3.485e-06    0.004172    0.014447    0.014447    0.141525
     7        -0.263650746596206    1.462e-06    0.004172    0.014448    0.014448    0.141525
     8        -0.263650751490419    5.800e-07    0.004172    0.014448    0.014448    0.141525
     9        -0.263650753385946    2.235e-07    0.004172    0.014448    0.014448    0.141525
    10        -0.263650754148633    9.252e-08    0.004172    0.014449    0.014449    0.141525

    Iterations converged.


    Largest TIA Amplitudes:
              7   0         0.0088656335
              7   7        -0.0067504338
              7   3         0.0053072167
              7   1         0.0049732760
              9  44         0.0044172888
             12  61         0.0044172888
             10  43         0.0041948600
             13  60         0.0041948600
             10  40        -0.0037241807
             13  57        -0.0037241807

    Largest TIjAb Amplitudes:
      7   7  14  14        -0.0231022977
     10  10  20  20        -0.0221382660
     10  10  35  35        -0.0221382660
     13  13  20  20        -0.0221382660
     13  13  35  35        -0.0221382660
     10  10  50  50        -0.0197634965
     13  13  67  67        -0.0197634965
     10  10  13  13        -0.0192909509
     10  10  32  32        -0.0192909509
     13  13  13  13        -0.0192909509

    SCF energy       (wfn)                    = -621.454633288019409
    Reference energy (file100)                = -621.454633288019636

    Opposite-spin MP2 correlation energy      =   -0.184992362895985
    Same-spin MP2 correlation energy          =   -0.064236199359211
    MP2 correlation energy                    =   -0.249228562255196
      * MP2 total energy                      = -621.703861850274848

    Opposite-spin CCSD correlation energy     =   -0.202798206034393
    Same-spin CCSD correlation energy         =   -0.060852548105290
    CCSD correlation energy                   =   -0.263650754148633
      * CCSD total energy                     = -621.718284042168307


*** tstop() called on odysseus at Sun Jun 25 23:09:35 2017
Module time:
	user time   =       1.74 seconds =       0.03 minutes
	system time =       0.76 seconds =       0.01 minutes
	total time  =          3 seconds =       0.05 minutes
Total time:
	user time   =     643.97 seconds =      10.73 minutes
	system time =      21.31 seconds =       0.36 minutes
	total time  =        372 seconds =       6.20 minutes

*** tstart() called on odysseus
*** at Sun Jun 25 23:09:35 2017


			**************************
			*                        *
			*         CCHBAR         *
			*                        *
			**************************


*** tstop() called on odysseus at Sun Jun 25 23:09:35 2017
Module time:
	user time   =       0.39 seconds =       0.01 minutes
	system time =       0.15 seconds =       0.00 minutes
	total time  =          0 seconds =       0.00 minutes
Total time:
	user time   =     644.36 seconds =      10.74 minutes
	system time =      21.46 seconds =       0.36 minutes
	total time  =        372 seconds =       6.20 minutes

*** tstart() called on odysseus
*** at Sun Jun 25 23:09:35 2017


			**************************
			*        CCLAMBDA        *
			**************************


	Nuclear Rep. energy (wfn)     =   41.183901345040482
	Reference           (wfn)     =                    0
	SCF energy          (wfn)     = -621.454633288019409
	Reference energy    (CC_INFO) = -621.454633288019636
	CCSD energy         (CC_INFO) =   -0.263650754148633
	Total CCSD energy   (CC_INFO) = -621.718284042168307

	Input parameters:
	-----------------
	Maxiter           =     50
	Convergence       = 1.0e-07
	Restart           =     No
	Cache Level       =     2
	Model III         =     No
	DIIS              =     Yes
	AO Basis          =     No
	ABCD              =     NEW
	Local CC          =     No
	Paramaters for left-handed eigenvectors:
	    Irr   Root  Ground-State?    EOM energy        R0
	  1   0     0        Yes       0.0000000000   1.0000000000
	Labels for eigenvector 1:
	LIA 0 -1, Lia 0 -1, LIJAB 0 -1, Lijab 0 -1, LIjAb 0 -1, 2LIjAb - LIjbA 0 -1
	Symmetry of left-hand state: A1
	Symmetry of left-hand eigenvector: A1

	          Solving Lambda Equations
	          ------------------------
	Iter     PseudoEnergy or Norm         RMS  
	----     ---------------------     --------
	   0        -0.263677171504366    3.046e-08
	   1        -0.256937458909703    9.637e-03
	   2        -0.256331722168034    1.800e-03
	   3        -0.256231131388195    9.456e-04
	   4        -0.256216688681769    3.839e-04
	   5        -0.256229873899971    1.279e-04
	   6        -0.256231094210882    4.378e-05
	   7        -0.256229973573666    1.742e-05
	   8        -0.256229778710301    6.566e-06
	   9        -0.256229842492754    2.563e-06
	  10        -0.256229850804781    8.957e-07
	  11        -0.256229857873487    3.079e-07
	  12        -0.256229853459078    1.029e-07
	  13        -0.256229851023997    3.073e-08

	Largest LIA Amplitudes:
	          7   0         0.0067739532
	          7   7        -0.0049966207
	          7   3         0.0040264090
	          7   1         0.0038284237
	          9  44         0.0037271152
	         12  61         0.0037271152
	          6  22        -0.0030004012
	          6  11        -0.0029044240
	          5  12         0.0027887297
	          6  18         0.0026656158

	Largest LIjAb Amplitudes:
	  7   7  14  14        -0.0223239654
	 10  10  20  20        -0.0214672446
	 10  10  35  35        -0.0214672446
	 13  13  20  20        -0.0214672446
	 13  13  35  35        -0.0214672446
	 10  10  50  50        -0.0191630969
	 13  13  67  67        -0.0191630969
	 10  10  13  13        -0.0186509867
	 10  10  32  32        -0.0186509867
	 13  13  13  13        -0.0186509867

	Iterations converged.

	Overlap <L|e^T> =        0.90895465511

*** tstop() called on odysseus at Sun Jun 25 23:09:38 2017
Module time:
	user time   =       1.36 seconds =       0.02 minutes
	system time =       0.52 seconds =       0.01 minutes
	total time  =          3 seconds =       0.05 minutes
Total time:
	user time   =     645.72 seconds =      10.76 minutes
	system time =      21.98 seconds =       0.37 minutes
	total time  =        375 seconds =       6.25 minutes

*** tstart() called on odysseus
*** at Sun Jun 25 23:09:38 2017


			**************************
			*                        *
			*        CCDENSITY       *
			*                        *
			**************************


	Input parameters:
	-----------------
	Wave function    =   CCSD
	Reference wfn    =   RHF
	Dertype          = 1
	Tolerance        = 1.0e-14
	Cache Level      = 2
	AO Basis         = No
	OPDM Only        = No
	Relax OPDM       = Yes
	Compute Xi       = No
	Use Zeta         = No
	Xi connected     = Yes
	Compute NO       = No

	Nuclear Rep. energy (wfn)     =   41.183901345040482
	SCF energy          (wfn)     = -621.454633288019409
	Reference energy    (file100) = -621.454633288019636
	CCSD energy         (CC_INFO) =   -0.263650754148633
	Total CCSD energy   (CC_INFO) = -621.718284042168307
	Number of States = 1

	Ground?  State     EOM Energy       R0
	  Yes     0 A1    0.0000000000   1.00000000

	Energies re-computed from CC density:
	-------------------------------------
	One-electron energy        =    0.276601819604604
	IJKL energy                =    0.050498786219707
	IJKA energy                =   -0.001082792804031
	IJAB energy                =   -0.512584377471696
	IBJA energy                =   -0.133509621952538
	CIAB energy                =   -0.000698349118250
	ABCD energy                =    0.057123780448137
	Total two-electron energy  =   -0.540252574678672
	CCSD    correlation energy =   -0.263650755074068
	Total CCSD    energy       = -621.718284043093718

	Virial Theorem Data:
	--------------------
	Kinetic energy (ref)   =  621.454563563574425
	Kinetic energy (corr)  =   -0.183292078581383
	Kinetic energy (total) =  621.271271484993008
	-V/T (ref)             =    2.000000112195564
	-V/T (corr)            =   -0.438418704120759
	-V/T (total)           =    2.000719512679392

	Energies re-computed from Fock-adjusted CC density:
	---------------------------------------------------
	One-electron energy        =    0.400165311182509
	IJKL energy                =   -2.156241229956080
	IJKA energy                =   -0.059284253521947
	IJAB energy                =   -0.512584377471696
	IBJA energy                =    2.007868363388117
	CIAB energy                =   -0.000698349118250
	ABCD energy                =    0.057123780448137
	Total two-electron energy  =   -0.663816066231719
	   CCSD correlation energy =   -0.263650755049210
	Total    CCSD energy       = -621.718284043068820

	Energies re-computed from Mulliken density:
	-------------------------------------------
	One-electron energy        =    0.400165311182509
	IJKL energy                =   -2.156241229956080
	IJKA energy                =   -0.059284253521947
	IJAB energy                =   -0.489363326273718
	IBJA energy                =    1.984647312190121
	CIAB energy                =   -0.000698349118250
	ABCD energy                =    0.057123780448137
	Total two-electron energy  =   -0.663816066231738
	   CCSD correlation energy =   -0.263650755049229
	Total    CCSD energy       = -621.718284043068934


Properties will be evaluated at   0.000000,   0.000000,   0.000000 Bohr

Properties computed using the CC density matrix

  Nuclear Dipole Moment: (a.u.)
     X:     0.0000      Y:     0.0000      Z:     0.4833

  Electronic Dipole Moment: (a.u.)
     X:     0.0000      Y:     0.0000      Z:    -4.1632

  Dipole Moment: (a.u.)
     X:     0.0000      Y:     0.0000      Z:    -3.6799     Total:     3.6799

  Dipole Moment: (Debye)
     X:     0.0000      Y:     0.0000      Z:    -9.3534     Total:     9.3534

  Quadrupole Moment: (Debye Ang)
    XX:   -19.5527     YY:   -19.5527     ZZ:   -10.8385
    XY:     0.0000     XZ:     0.0000     YZ:     0.0000

  Traceless Quadrupole Moment: (Debye Ang)
    XX:    -2.9047     YY:    -2.9047     ZZ:     5.8094
    XY:     0.0000     XZ:     0.0000     YZ:     0.0000

  Mulliken Charges: (a.u.)
   Center  Symbol    Alpha    Beta     Spin     Total
       1    NA     5.24029  5.24029  0.00000  0.51942
       2    CL     8.75971  8.75971  0.00000 -0.51942

   Total alpha = 14.00000, Total beta = 14.00000, Total charge =  0.00000

  Natural Orbital Occupations:

  Total Occupations:
  HONO-2 :    8 A1    1.950
  HONO-1 :    3 B1    1.950
  HONO-0 :    3 B2    1.950
  LUNO+0 :    4 B2    0.021
  LUNO+1 :    4 B1    0.021
  LUNO+2 :    9 A1    0.021
  LUNO+3 :   10 A1    0.020


*** tstop() called on odysseus at Sun Jun 25 23:09:47 2017
Module time:
	user time   =       6.70 seconds =       0.11 minutes
	system time =       0.99 seconds =       0.02 minutes
	total time  =          9 seconds =       0.15 minutes
Total time:
	user time   =     652.42 seconds =      10.87 minutes
	system time =      22.97 seconds =       0.38 minutes
	total time  =        384 seconds =       6.40 minutes
  Cartesian Displacement SALCs
  By SALC:
  Number of SALCs: 2, nirreps: 1
  Project out translations: False
  Project out rotations: False
	irrep = 0, ncomponent = 1
		0: atom 0, direction z, coef 1.000000
	irrep = 0, ncomponent = 1
		0: atom 1, direction z, coef 1.000000

  By Atomic Center:
  Number of atomic centers: 2
   Atomic Center 0:
	x component, size = 0
	y component, size = 0
	z component, size = 1
		0: salc 0, irrep 0, coef 1.000000
   Atomic Center 1:
	x component, size = 0
	y component, size = 0
	z component, size = 1
		0: salc 1, irrep 0, coef 1.000000

    Molecular point group: c2v
    Full point group: C_inf_v

    Geometry (in Bohr), charge = 0, multiplicity = 1:

       Center              X                  Y                   Z       
    ------------   -----------------  -----------------  -----------------
          NA          0.000000000000     0.000000000000    -2.739538789690
          CL          0.000000000000     0.000000000000     1.801070377793

	Presorting MO-basis TPDM.
	Sorting File: MO TPDM (AA|AA) nbuckets = 1
	Starting first half-transformation.
	Sorting half-transformed TPDM.
	First half integral transformation complete.


  -Nuclear Repulsion Energy 1st Derivatives:
     Atom            X                  Y                   Z
    ------   -----------------  -----------------  -----------------
       1        0.000000000000     0.000000000000     9.070126898385
       2        0.000000000000     0.000000000000    -9.070126898385


  -One-electron contribution to gradient:
     Atom            X                  Y                   Z
    ------   -----------------  -----------------  -----------------
       1        0.000000000000     0.000000000000   -18.237218450136
       2        0.000000000000     0.000000000000    18.237218450160


  -Lagrangian contribution to gradient:
     Atom            X                  Y                   Z
    ------   -----------------  -----------------  -----------------
       1        0.000000000000     0.000000000000     0.044851047228
       2        0.000000000000     0.000000000000    -0.044851047228


  -Two-electron contribution to gradient:
     Atom            X                  Y                   Z
    ------   -----------------  -----------------  -----------------
       1        0.000000000000     0.000000000000     9.122317380975
       2        0.000000000000     0.000000000000    -9.122317380975


  -Total gradient:
     Atom            X                  Y                   Z
    ------   -----------------  -----------------  -----------------
       1        0.000000000000     0.000000000000     0.000076876453
       2        0.000000000000     0.000000000000    -0.000076876428


			-----------------------------------------
			 OPTKING 2.0: for geometry optimizations 
			  - R.A. King,  Bethel University        
			-----------------------------------------

	Previous internal coordinate definitions found.
	---Fragment 1 Geometry and Gradient---
	 NA          0.0000000000        0.0000000000       -2.7395387897
	 CL          0.0000000000        0.0000000000        1.8010703778
	             0.0000000000        0.0000000000        0.0000768765
	             0.0000000000        0.0000000000       -0.0000768764

	---Fragment 1 Intrafragment Coordinates---
	 - Coordinate -           - BOHR/RAD -       - ANG/DEG -
	 R(1,2)           =         4.540609	       2.402787

	Current energy   :      -621.7182840422

	Energy change for the previous step:
		Projected    :         0.0000396875
		Actual       :        -0.0000036712

	Performing BFGS update.
	Previous computed or guess Hessian on step 1.
	Steps to be used in Hessian update: 6 5
	Taking RFO optimization step.
	Going to follow RFO solution 1.
	Using RFO vector 1.
	Norm of target step-size    0.00117
	Projected energy change by RFO approximation:         0.0000005944

	Back-transformation to cartesian coordinates...
	Successfully converged to displaced geometry.

	--- Internal Coordinate Step in ANG or DEG, aJ/ANG or AJ/DEG ---
	 ---------------------------------------------------------------------------
	   Coordinate                Previous        Force       Change         New 
	   ----------                --------       ------       ------       ------
	    1 R(1,2)          =      2.402787     0.000633     0.000619     2.403406
	 ---------------------------------------------------------------------------
	Successfully symmetrized geometry.

  ==> Convergence Check <==

  Measures of convergence in internal coordinates in au.
  Criteria marked as inactive (o), active & met (*), and active & unmet ( ).
  ---------------------------------------------------------------------------------------------
   Step     Total Energy     Delta E     MAX Force     RMS Force      MAX Disp      RMS Disp   
  ---------------------------------------------------------------------------------------------
    Convergence Criteria    1.00e-06 *    3.00e-04 *             o    1.20e-03 *             o
  ---------------------------------------------------------------------------------------------
      7    -621.71828404   -3.67e-06      7.69e-05 *    7.69e-05 o    1.17e-03 *    1.17e-03 o  ~
  ---------------------------------------------------------------------------------------------


  **** Optimization is complete! (in 7 steps) ****

  ==> Optimization Summary <==

  Measures of convergence in internal coordinates in au.
  --------------------------------------------------------------------------------------------------------------- ~
   Step         Total Energy             Delta E       MAX Force       RMS Force        MAX Disp        RMS Disp  ~
  --------------------------------------------------------------------------------------------------------------- ~
      1    -621.687496940318   -621.687496940318      0.10740689      0.10740689      0.28524639      0.28524639  ~
      2    -621.708714398814     -0.021217458497      0.04715788      0.04715788      0.21312566      0.21312566  ~
      3    -621.715743445056     -0.007029046241      0.02078746      0.02078746      0.11793879      0.11793879  ~
      4    -621.717557884500     -0.001814439445      0.01035014      0.01035014      0.09230050      0.09230050  ~
      5    -621.718190557968     -0.000632673468      0.00352977      0.00352977      0.04292162      0.04292162  ~
      6    -621.718280370999     -0.000089813031      0.00068775      0.00068775      0.00962394      0.00962394  ~
      7    -621.718284042168     -0.000003671169      0.00007688      0.00007688      0.00116989      0.00116989  ~
  --------------------------------------------------------------------------------------------------------------- ~

	Writing optimization data to binary file.
	Final energy is   -621.7182840421683
	Final (previous) structure:
	Cartesian Geometry (in Angstrom)
	   NA     0.0000000000   0.0000000000  -1.4497014896
	   CL     0.0000000000   0.0000000000   0.9530853950
	Saving final (previous) structure.
			--------------------------
			 OPTKING Finished Execution 
			--------------------------

    Final optimized geometry and variables:
    Molecular point group: c2v
    Full point group: C_inf_v

    Geometry (in Angstrom), charge = 0, multiplicity = 1:

    NA           0.000000000000     0.000000000000    -1.449701489552
    CL           0.000000000000     0.000000000000     0.953085394995

	Cleaning optimization helper files.

*** Psi4 exiting successfully. Buy a developer a beer!
