
    -----------------------------------------------------------------------
          Psi4: An Open-Source Ab Initio Electronic Structure Package
                               Psi4 1.1 release

                         Git: Rev {HEAD} add49b9 


    R. M. Parrish, L. A. Burns, D. G. A. Smith, A. C. Simmonett,
    A. E. DePrince III, E. G. Hohenstein, U. Bozkaya, A. Yu. Sokolov,
    R. Di Remigio, R. M. Richard, J. F. Gonthier, A. M. James,
    H. R. McAlexander, A. Kumar, M. Saitow, X. Wang, B. P. Pritchard,
    P. Verma, H. F. Schaefer III, K. Patkowski, R. A. King, E. F. Valeev,
    F. A. Evangelista, J. M. Turney, T. D. Crawford, and C. D. Sherrill,
    J. Chem. Theory Comput. in press (2017).
    (doi: 10.1021/acs.jctc.7b00174)

    -----------------------------------------------------------------------


    Psi4 started on: Tuesday, 27 June 2017 02:51PM

    Process ID:  15845
    PSIDATADIR: /home/eric/opt/apps/python/psi4conda/share/psi4
    Memory:     500.0 MiB
    Threads:    4
    
  ==> Input File <==

--------------------------------------------------------------------------
# -*- mode: python -*-

from __future__ import print_function

memory 2 gb

min_distance = 1.449701489552 + 0.953085394995
molecule dimer {
1 1
Na           0.000000000000     0.000000000000     0.000
--
-1 1
Cl           0.000000000000     0.000000000000     r

symmetry c1
units angstrom
no_reorient
no_com
}
dimer.r = min_distance

set {
    basis def2-svp
}

energy('ccsd(t)')

print_variables()
--------------------------------------------------------------------------

  Memory set to   1.863 GiB by Python driver.
Setting geometry variable r to 2.402787

*** tstart() called on odysseus
*** at Tue Jun 27 14:51:25 2017

   => Loading Basis Set <=

    Name: DEF2-SVP
    Role: ORBITAL
    Keyword: BASIS
    atoms 1 entry NA         line   189 file /home/eric/opt/apps/python/psi4conda/share/psi4/basis/def2-svp.gbs 
    atoms 2 entry CL         line   355 file /home/eric/opt/apps/python/psi4conda/share/psi4/basis/def2-svp.gbs 


         ---------------------------------------------------------
                                   SCF
            by Justin Turney, Rob Parrish, and Andy Simmonett
                              RHF Reference
                        4 Threads,   1907 MiB Core
         ---------------------------------------------------------

  ==> Geometry <==

    Molecular point group: c1
    Full point group: C_inf_v

    Geometry (in Angstrom), charge = 0, multiplicity = 1:

       Center              X                  Y                   Z               Mass       
    ------------   -----------------  -----------------  -----------------  -----------------
          NA          0.000000000000     0.000000000000     0.000000000000    22.989769280870
          CL          0.000000000000     0.000000000000     2.402786884547    34.968852682000

  Running in c1 symmetry.

  Rotational constants: A = ************  B =      0.08350  C =      0.08350 [cm^-1]
  Rotational constants: A = ************  B =   2503.25624  C =   2503.25624 [MHz]
  Nuclear repulsion =   41.183901345035977

  Charge       = 0
  Multiplicity = 1
  Electrons    = 28
  Nalpha       = 14
  Nbeta        = 14

  ==> Algorithm <==

  SCF Algorithm Type is PK.
  DIIS enabled.
  MOM disabled.
  Fractional occupation disabled.
  Guess Type is SAD.
  Energy threshold   = 1.00e-08
  Density threshold  = 1.00e-08
  Integral threshold = 0.00e+00

  ==> Primary Basis <==

  Basis Set: DEF2-SVP
    Blend: DEF2-SVP
    Number of shells: 15
    Number of basis function: 33
    Number of Cartesian functions: 35
    Spherical Harmonics?: true
    Max angular momentum: 2

  ==> Pre-Iterations <==

   -------------------------------------------------------
    Irrep   Nso     Nmo     Nalpha   Nbeta   Ndocc  Nsocc
   -------------------------------------------------------
     A         33      33       0       0       0       0
   -------------------------------------------------------
    Total      33      33      14      14      14       0
   -------------------------------------------------------

  ==> Integral Setup <==

  Using in-core PK algorithm.
   Calculation information:
      Number of atoms:                   2
      Number of AO shells:              15
      Number of primitives:             35
      Number of atomic orbitals:        35
      Number of basis functions:        33

      Integral cutoff                 1.00e-12
      Number of threads:                 4

  Performing in-core PK
  Using 315282 doubles for integral storage.
  We computed 10247 shell quartets total.
  Whereas there are 7260 unique shell quartets.
    41.14 percent of shell quartets recomputed by reordering.
  ==> DiskJK: Disk-Based J/K Matrices <==

    J tasked:                  Yes
    K tasked:                  Yes
    wK tasked:                  No
    Memory (MB):              1430
    Schwarz Cutoff:          1E-12

    OpenMP threads:              4
  Minimum eigenvalue in the overlap matrix is 3.9291891033E-02.
  Using Symmetric Orthogonalization.

  SCF Guess: Superposition of Atomic Densities via on-the-fly atomic UHF.

  ==> Iterations <==

                        Total Energy        Delta E     RMS |[F,P]|

   @RHF iter   0:  -621.04045774240137   -6.21040e+02   4.65040e-02 
   @RHF iter   1:  -621.18802307973817   -1.47565e-01   1.34711e-02 
   @RHF iter   2:  -621.21891753625323   -3.08945e-02   5.16946e-03 DIIS
   @RHF iter   3:  -621.22196370226027   -3.04617e-03   5.46950e-04 DIIS
   @RHF iter   4:  -621.22208567035102   -1.21968e-04   1.34669e-04 DIIS
   @RHF iter   5:  -621.22209665278433   -1.09824e-05   2.61582e-05 DIIS
   @RHF iter   6:  -621.22209724594154   -5.93157e-07   4.05980e-06 DIIS
   @RHF iter   7:  -621.22209725863877   -1.26972e-08   1.20791e-06 DIIS
   @RHF iter   8:  -621.22209725970640   -1.06763e-09   2.47797e-07 DIIS
   @RHF iter   9:  -621.22209725975301   -4.66116e-11   5.59584e-08 DIIS
   @RHF iter  10:  -621.22209725975472   -1.70530e-12   1.04976e-08 DIIS
   @RHF iter  11:  -621.22209725975517   -4.54747e-13   1.56656e-09 DIIS

  ==> Post-Iterations <==

    Orbital Energies (a.u.)
    -----------------------

    Doubly Occupied:                                                      

       1A   -104.644126     2A    -40.503914     3A    -10.404429  
       4A     -7.878391     5A     -7.877751     6A     -7.877751  
       7A     -2.827438     8A     -1.551624     9A     -1.551624  
      10A     -1.549989    11A     -0.919631    12A     -0.351080  
      13A     -0.335375    14A     -0.335375  

    Virtual:                                                              

      15A     -0.010585    16A      0.083310    17A      0.083310  
      18A      0.117635    19A      0.177142    20A      0.340873  
      21A      0.340873    22A      0.376813    23A      0.376813  
      24A      0.437931    25A      0.934032    26A      1.173430  
      27A      1.178504    28A      1.178504    29A      1.190485  
      30A      1.190485    31A      1.335655    32A      1.335655  
      33A      1.349843  

    Final Occupation by Irrep:
              A 
    DOCC [    14 ]

  Energy converged.

  @RHF Final Energy:  -621.22209725975517

   => Energetics <=

    Nuclear Repulsion Energy =             41.1839013450359772
    One-Electron Energy =                -947.5950025192806834
    Two-Electron Energy =                 285.1890039144895468
    DFT Exchange-Correlation Energy =       0.0000000000000000
    Empirical Dispersion Energy =           0.0000000000000000
    PCM Polarization Energy =               0.0000000000000000
    EFP Energy =                            0.0000000000000000
    Total Energy =                       -621.2220972597551736



Properties will be evaluated at   0.000000,   0.000000,   0.000000 Bohr

Properties computed using the SCF density matrix

  Nuclear Dipole Moment: (a.u.)
     X:     0.0000      Y:     0.0000      Z:    77.1904

  Electronic Dipole Moment: (a.u.)
     X:    -0.0000      Y:     0.0000      Z:   -80.7704

  Dipole Moment: (a.u.)
     X:    -0.0000      Y:     0.0000      Z:    -3.5801     Total:     3.5801

  Dipole Moment: (Debye)
     X:    -0.0000      Y:     0.0000      Z:    -9.0996     Total:     9.0996


*** tstop() called on odysseus at Tue Jun 27 14:51:26 2017
Module time:
	user time   =       1.91 seconds =       0.03 minutes
	system time =       0.05 seconds =       0.00 minutes
	total time  =          1 seconds =       0.02 minutes
Total time:
	user time   =       1.91 seconds =       0.03 minutes
	system time =       0.05 seconds =       0.00 minutes
	total time  =          1 seconds =       0.02 minutes
 MINTS: Wrapper to libmints.
   by Justin Turney

   Calculation information:
      Number of threads:                 4
      Number of atoms:                   2
      Number of AO shells:              15
      Number of SO shells:              15
      Number of primitives:             35
      Number of atomic orbitals:        35
      Number of basis functions:        33

      Number of irreps:                  1
      Integral cutoff                 0.00e+00
      Number of functions per irrep: [  33 ]

 OEINTS: Overlap, kinetic, potential, dipole, and quadrupole integrals
         stored in file 35.

      Computing two-electron integrals...done
      Computed 37484 non-zero two-electron integrals.
        Stored in file 33.


*** tstart() called on odysseus
*** at Tue Jun 27 14:51:26 2017


	Wfn Parameters:
	--------------------
	Wavefunction         = CCSD_T
	Number of irreps     = 1
	Number of MOs        = 33
	Number of active MOs = 33
	AO-Basis             = NONE
	Semicanonical        = false
	Reference            = RHF
	Print Level          = 1

	IRREP	# MOs	# FZDC	# DOCC	# SOCC	# VIRT	# FZVR
	-----	-----	------	------	------	------	------
	 A	   33	    0	    14	    0	    19	    0
	Transforming integrals...
	IWL integrals will be deleted.
	(OO|OO)...
	Presorting SO-basis two-electron integrals.
	Sorting File: SO Ints (nn|nn) nbuckets = 1
	Transforming the one-electron integrals and constructing Fock matrices
	Starting first half-transformation.
	Sorting half-transformed integrals.
	First half integral transformation complete.
	Starting second half-transformation.
	Two-electron integral transformation complete.
	(OO|OV)...
	Starting second half-transformation.
	Two-electron integral transformation complete.
	(OO|VV)...
	Starting second half-transformation.
	Two-electron integral transformation complete.
	(OV|OO)...
	Starting first half-transformation.
	Sorting half-transformed integrals.
	First half integral transformation complete.
	Starting second half-transformation.
	Two-electron integral transformation complete.
	(OV|OV)...
	Starting second half-transformation.
	Two-electron integral transformation complete.
	(OV|VV)...
	Starting second half-transformation.
	Two-electron integral transformation complete.
	(VV|OO)...
	Starting first half-transformation.
	Sorting half-transformed integrals.
	First half integral transformation complete.
	Starting second half-transformation.
	Two-electron integral transformation complete.
	(VV|OV)...
	Starting second half-transformation.
	Two-electron integral transformation complete.
	(VV|VV)...
	Starting second half-transformation.
	Two-electron integral transformation complete.
	Frozen core energy     =      0.00000000000000

	Size of irrep 0 of <ab|cd> integrals:      0.130 (MW) /      1.043 (MB)
	Total:                                     0.130 (MW) /      1.043 (MB)

	Size of irrep 0 of <ia|bc> integrals:      0.096 (MW) /      0.768 (MB)
	Total:                                     0.096 (MW) /      0.768 (MB)

	Size of irrep 0 of tijab amplitudes:       0.071 (MW) /      0.566 (MB)
	Total:                                     0.071 (MW) /      0.566 (MB)

	Nuclear Rep. energy          =     41.18390134503598
	SCF energy                   =   -621.22209725975517
	One-electron energy          =   -947.59500262477286
	Two-electron energy          =    285.18900401998218
	Reference energy             =   -621.22209725975472

*** tstop() called on odysseus at Tue Jun 27 14:51:26 2017
Module time:
	user time   =       0.42 seconds =       0.01 minutes
	system time =       0.06 seconds =       0.00 minutes
	total time  =          0 seconds =       0.00 minutes
Total time:
	user time   =       2.76 seconds =       0.05 minutes
	system time =       0.11 seconds =       0.00 minutes
	total time  =          1 seconds =       0.02 minutes

*** tstart() called on odysseus
*** at Tue Jun 27 14:51:26 2017

            **************************
            *                        *
            *        CCENERGY        *
            *                        *
            **************************

    Nuclear Rep. energy (wfn)     =   41.183901345035977
    SCF energy          (wfn)     = -621.222097259755174
    Reference energy    (file100) = -621.222097259754719

    Input parameters:
    -----------------
    Wave function   =     CCSD_T
    Reference wfn   =     RHF
    Brueckner       =     No
    Memory (Mbytes) =     2000.0
    Maxiter         =     50
    R_Convergence   =     1.0e-07
    E_Convergence   =     1.0e-06
    Restart         =     Yes
    DIIS            =     Yes
    AO Basis        =     NONE
    ABCD            =     NEW
    Cache Level     =     2
    Cache Type      =     LOW
    Print Level     =     1
    Num. of threads =     4
    # Amps to Print =     10
    Print MP2 Amps? =     No
    Analyze T2 Amps =     No
    Print Pair Ener =     No
    Local CC        =     No
    SCS-MP2         =     False
    SCSN-MP2        =     False
    SCS-CCSD        =     False

MP2 correlation energy -0.1474070194430273
                Solving CC Amplitude Equations
                ------------------------------
  Iter             Energy              RMS        T1Diag      D1Diag    New D1Diag    D2Diag
  ----     ---------------------    ---------   ----------  ----------  ----------   --------
     0        -0.147407019443027    0.000e+00    0.000000    0.000000    0.000000    0.102397
     1        -0.155716306762390    2.969e-02    0.003436    0.011740    0.011740    0.110234
     2        -0.157888530264339    9.991e-03    0.004171    0.014651    0.014651    0.113802
     3        -0.158399301310729    5.230e-03    0.004951    0.017913    0.017913    0.114758
     4        -0.158406916312101    1.803e-03    0.005347    0.019739    0.019739    0.115039
     5        -0.158388826183787    7.567e-04    0.005466    0.020401    0.020401    0.115074
     6        -0.158386873060313    2.522e-04    0.005511    0.020699    0.020699    0.115067
     7        -0.158386460652929    8.752e-05    0.005522    0.020798    0.020798    0.115068
     8        -0.158386542596977    3.277e-05    0.005522    0.020825    0.020825    0.115071
     9        -0.158386784012285    8.580e-06    0.005522    0.020830    0.020830    0.115072
    10        -0.158386777660695    3.356e-06    0.005522    0.020832    0.020832    0.115072
    11        -0.158386757465062    1.245e-06    0.005522    0.020832    0.020832    0.115072
    12        -0.158386745321906    3.065e-07    0.005522    0.020832    0.020832    0.115072
    13        -0.158386742691836    1.286e-07    0.005522    0.020832    0.020832    0.115072
    14        -0.158386742593494    4.194e-08    0.005522    0.020832    0.020832    0.115072

    Iterations converged.


    Largest TIA Amplitudes:
             11   0         0.0153106681
             11   4         0.0121213675
             13   1         0.0116941174
             12   2         0.0116941029
             12  17         0.0069477217
             13  16         0.0069477180
             11  18         0.0066492873
             13   7         0.0032948804
             12   8         0.0032948714
             10  10         0.0027550502

    Largest TIjAb Amplitudes:
     11  11  11  11        -0.0377599189
     12  12  12  12        -0.0315070592
     12  12  13  13        -0.0315070590
     13  13  13  13        -0.0315070587
     13  13  12  12        -0.0315070585
     12  12  14  14        -0.0313089684
     13  13  15  15        -0.0313089681
     12  12  17  17        -0.0263199087
     13  13  16  16        -0.0263199083
     11  11  18  18        -0.0246240227

    SCF energy       (wfn)                    = -621.222097259755174
    Reference energy (file100)                = -621.222097259754719

    Opposite-spin MP2 correlation energy      =   -0.107427042735164
    Same-spin MP2 correlation energy          =   -0.039979976707863
    MP2 correlation energy                    =   -0.147407019443027
      * MP2 total energy                      = -621.369504279197713

    Opposite-spin CCSD correlation energy     =   -0.120066533221888
    Same-spin CCSD correlation energy         =   -0.038320209378942
    CCSD correlation energy                   =   -0.158386742593494
      * CCSD total energy                     = -621.380484002348226


*** tstop() called on odysseus at Tue Jun 27 14:51:27 2017
Module time:
	user time   =       0.74 seconds =       0.01 minutes
	system time =       0.42 seconds =       0.01 minutes
	total time  =          1 seconds =       0.02 minutes
Total time:
	user time   =       3.50 seconds =       0.06 minutes
	system time =       0.53 seconds =       0.01 minutes
	total time  =          2 seconds =       0.03 minutes

*** tstart() called on odysseus
*** at Tue Jun 27 14:51:27 2017

            **************************
            *                        *
            *        CCTRIPLES       *
            *                        *
            **************************


    Wave function   =    CCSD_T
    Reference wfn   =      RHF

    Nuclear Rep. energy (wfn)                =   41.183901345035977
    SCF energy          (wfn)                = -621.222097259755174
    Reference energy    (file100)            = -621.222097259754719
    CCSD energy         (file100)            =   -0.158386742593494
    Total CCSD energy   (file100)            = -621.380484002348226

    Number of ijk index combinations:              560
    Memory available in words        :       250000000
    ~Words needed per explicit thread:           27436
    Number of threads for explicit ijk threading:    4

    MKL num_threads set to 1 for explicit threading.

    (T) energy                                =   -0.002328852553837
      * CCSD(T) total energy                  = -621.382812854901999


*** tstop() called on odysseus at Tue Jun 27 14:51:28 2017
Module time:
	user time   =       0.35 seconds =       0.01 minutes
	system time =       0.04 seconds =       0.00 minutes
	total time  =          1 seconds =       0.02 minutes
Total time:
	user time   =       3.85 seconds =       0.06 minutes
	system time =       0.57 seconds =       0.01 minutes
	total time  =          3 seconds =       0.05 minutes


  Variable Map:
  ----------------------------------------------------------------------------
  "(T) CORRECTION ENERGY"                 =>      -0.002328852554
  "CCSD CORRELATION ENERGY"               =>      -0.158386742593
  "CCSD OPPOSITE-SPIN CORRELATION ENERGY" =>      -0.120066533222
  "CCSD SAME-SPIN CORRELATION ENERGY"     =>      -0.038320209379
  "CCSD TOTAL ENERGY"                     =>    -621.380484002348
  "CCSD(T) CORRELATION ENERGY"            =>      -0.160715595147
  "CCSD(T) TOTAL ENERGY"                  =>    -621.382812854902
  "CURRENT CORRELATION ENERGY"            =>      -0.160715595147
  "CURRENT DIPOLE X"                      =>      -0.000000020048
  "CURRENT DIPOLE Y"                      =>       0.000000000247
  "CURRENT DIPOLE Z"                      =>      -9.099643216678
  "CURRENT ENERGY"                        =>    -621.382812854902
  "CURRENT REFERENCE ENERGY"              =>    -621.222097259755
  "HF TOTAL ENERGY"                       =>    -621.222097259755
  "LCCSD (+LMP2) TOTAL ENERGY"            =>    -621.380484002348
  "MP2 CORRELATION ENERGY"                =>      -0.147407019443
  "MP2 OPPOSITE-SPIN CORRELATION ENERGY"  =>      -0.107427042735
  "MP2 SAME-SPIN CORRELATION ENERGY"      =>      -0.039979976708
  "MP2 TOTAL ENERGY"                      =>    -621.369504279198
  "NUCLEAR REPULSION ENERGY"              =>      41.183901345036
  "ONE-ELECTRON ENERGY"                   =>    -947.595002519281
  "PCM POLARIZATION ENERGY"               =>       0.000000000000
  "SCF DIPOLE X"                          =>      -0.000000020048
  "SCF DIPOLE Y"                          =>       0.000000000247
  "SCF DIPOLE Z"                          =>      -9.099643216678
  "SCF ITERATION ENERGY"                  =>    -621.222097259755
  "SCF ITERATIONS"                        =>      11.000000000000
  "SCF TOTAL ENERGY"                      =>    -621.222097259755
  "TWO-ELECTRON ENERGY"                   =>     285.189003914490



*** Psi4 exiting successfully. Buy a developer a beer!
