
    -----------------------------------------------------------------------
          Psi4: An Open-Source Ab Initio Electronic Structure Package
                               Psi4 1.1 release

                         Git: Rev {HEAD} add49b9 


    R. M. Parrish, L. A. Burns, D. G. A. Smith, A. C. Simmonett,
    A. E. DePrince III, E. G. Hohenstein, U. Bozkaya, A. Yu. Sokolov,
    R. Di Remigio, R. M. Richard, J. F. Gonthier, A. M. James,
    H. R. McAlexander, A. Kumar, M. Saitow, X. Wang, B. P. Pritchard,
    P. Verma, H. F. Schaefer III, K. Patkowski, R. A. King, E. F. Valeev,
    F. A. Evangelista, J. M. Turney, T. D. Crawford, and C. D. Sherrill,
    J. Chem. Theory Comput. in press (2017).
    (doi: 10.1021/acs.jctc.7b00174)

    -----------------------------------------------------------------------


    Psi4 started on: Tuesday, 27 June 2017 03:03PM

    Process ID:  16343
    PSIDATADIR: /home/eric/opt/apps/python/psi4conda/share/psi4
    Memory:     500.0 MiB
    Threads:    4
    
  ==> Input File <==

--------------------------------------------------------------------------
# -*- mode: python -*-

from __future__ import print_function

memory 2 gb

min_distance = 1.449701489552 + 0.953085394995
molecule dimer {
1 1
Na           0.000000000000     0.000000000000     0.000
--
-1 1
Cl           0.000000000000     0.000000000000     r

symmetry c1
units angstrom
no_reorient
no_com
}
dimer.r = min_distance

set {
    basis def2-svp
}

energy('ccsd(t)', bsse_type='nocp')

print_variables()
--------------------------------------------------------------------------

  Memory set to   1.863 GiB by Python driver.
Setting geometry variable r to 2.402787


   ===> N-Body Interaction Abacus <===
        BSSE Treatment:                     nocp
        Number of 1-body computations:     2
        Number of 2-body computations:     1

   ==> N-Body: Now computing 1-body complexes <==


       N-Body: Computing complex (1/2) with fragments (2,) in the basis of fragments (2,).


*** tstart() called on odysseus
*** at Tue Jun 27 15:03:11 2017

   => Loading Basis Set <=

    Name: DEF2-SVP
    Role: ORBITAL
    Keyword: BASIS
    atoms 1 entry CL         line   355 file /home/eric/opt/apps/python/psi4conda/share/psi4/basis/def2-svp.gbs 


         ---------------------------------------------------------
                                   SCF
            by Justin Turney, Rob Parrish, and Andy Simmonett
                              RHF Reference
                        4 Threads,   1907 MiB Core
         ---------------------------------------------------------

  ==> Geometry <==

    Molecular point group: c1
    Geometry (in Angstrom), charge = -1, multiplicity = 1:

       Center              X                  Y                   Z               Mass       
    ------------   -----------------  -----------------  -----------------  -----------------
          CL          0.000000000000     0.000000000000     2.402786884547    34.968852682000

  Running in c1 symmetry.

  Rotational constants: A = ************  B =      0.08350  C =      0.08350 [cm^-1]
  Rotational constants: A = ************  B =   2503.25624  C =   2503.25624 [MHz]
  Nuclear repulsion =    0.000000000000000

  Charge       = -1
  Multiplicity = 1
  Electrons    = 18
  Nalpha       = 9
  Nbeta        = 9

  ==> Algorithm <==

  SCF Algorithm Type is PK.
  DIIS enabled.
  MOM disabled.
  Fractional occupation disabled.
  Guess Type is CORE.
  Energy threshold   = 1.00e-08
  Density threshold  = 1.00e-08
  Integral threshold = 0.00e+00

  ==> Primary Basis <==

  Basis Set: DEF2-SVP
    Blend: DEF2-SVP
    Number of shells: 8
    Number of basis function: 18
    Number of Cartesian functions: 19
    Spherical Harmonics?: true
    Max angular momentum: 2

  ==> Pre-Iterations <==

   -------------------------------------------------------
    Irrep   Nso     Nmo     Nalpha   Nbeta   Ndocc  Nsocc
   -------------------------------------------------------
     A         18      18       0       0       0       0
   -------------------------------------------------------
    Total      18      18       9       9       9       0
   -------------------------------------------------------

  ==> Integral Setup <==

  Using in-core PK algorithm.
   Calculation information:
      Number of atoms:                   1
      Number of AO shells:               8
      Number of primitives:             18
      Number of atomic orbitals:        19
      Number of basis functions:        18

      Integral cutoff                 1.00e-12
      Number of threads:                 4

  Performing in-core PK
  Using 29412 doubles for integral storage.
  We computed 1286 shell quartets total.
  Whereas there are 666 unique shell quartets.
    93.09 percent of shell quartets recomputed by reordering.
  ==> DiskJK: Disk-Based J/K Matrices <==

    J tasked:                  Yes
    K tasked:                  Yes
    wK tasked:                  No
    Memory (MB):              1430
    Schwarz Cutoff:          1E-12

    OpenMP threads:              4
  Minimum eigenvalue in the overlap matrix is 1.1597765583E-01.
  Using Symmetric Orthogonalization.

  SCF Guess: Core (One-Electron) Hamiltonian.

  ==> Iterations <==

                        Total Energy        Delta E     RMS |[F,P]|

   @RHF iter   1:  -453.92533319294716   -4.53925e+02   2.07562e-01 
   @RHF iter   2:  -458.99672481543649   -5.07139e+00   7.99647e-02 DIIS
   @RHF iter   3:  -459.36278698215528   -3.66062e-01   1.48534e-02 DIIS
   @RHF iter   4:  -459.37121799986255   -8.43102e-03   6.29829e-04 DIIS
   @RHF iter   5:  -459.37123990569432   -2.19058e-05   5.17621e-05 DIIS
   @RHF iter   6:  -459.37124023773839   -3.32044e-07   6.16444e-06 DIIS
   @RHF iter   7:  -459.37124023856364   -8.25253e-10   8.24833e-08 DIIS
   @RHF iter   8:  -459.37124023856376   -1.13687e-13   2.89340e-09 DIIS

  ==> Post-Iterations <==

    Orbital Energies (a.u.)
    -----------------------

    Doubly Occupied:                                                      

       1A   -104.372924     2A    -10.132862     3A     -7.607017  
       4A     -7.607017     5A     -7.607017     6A     -0.660696  
       7A     -0.086947     8A     -0.086947     9A     -0.086947  

    Virtual:                                                              

      10A      0.978193    11A      1.430034    12A      1.430034  
      13A      1.430034    14A      1.430034    15A      1.430034  
      16A      1.494104    17A      1.494104    18A      1.494104  

    Final Occupation by Irrep:
              A 
    DOCC [     9 ]

  Energy converged.

  @RHF Final Energy:  -459.37124023856376

   => Energetics <=

    Nuclear Repulsion Energy =              0.0000000000000000
    One-Electron Energy =                -642.2457363720080821
    Two-Electron Energy =                 182.8744961334443246
    DFT Exchange-Correlation Energy =       0.0000000000000000
    Empirical Dispersion Energy =           0.0000000000000000
    PCM Polarization Energy =               0.0000000000000000
    EFP Energy =                            0.0000000000000000
    Total Energy =                       -459.3712402385637574



Properties will be evaluated at   0.000000,   0.000000,   0.000000 Bohr

Properties computed using the SCF density matrix

  Nuclear Dipole Moment: (a.u.)
     X:     0.0000      Y:     0.0000      Z:    77.1904

  Electronic Dipole Moment: (a.u.)
     X:    -0.0000      Y:    -0.0000      Z:   -81.7310

  Dipole Moment: (a.u.)
     X:    -0.0000      Y:    -0.0000      Z:    -4.5406     Total:     4.5406

  Dipole Moment: (Debye)
     X:    -0.0000      Y:    -0.0000      Z:   -11.5411     Total:    11.5411


*** tstop() called on odysseus at Tue Jun 27 15:03:11 2017
Module time:
	user time   =       0.53 seconds =       0.01 minutes
	system time =       0.02 seconds =       0.00 minutes
	total time  =          0 seconds =       0.00 minutes
Total time:
	user time   =       0.53 seconds =       0.01 minutes
	system time =       0.02 seconds =       0.00 minutes
	total time  =          0 seconds =       0.00 minutes
 MINTS: Wrapper to libmints.
   by Justin Turney

   Calculation information:
      Number of threads:                 4
      Number of atoms:                   1
      Number of AO shells:               8
      Number of SO shells:               8
      Number of primitives:             18
      Number of atomic orbitals:        19
      Number of basis functions:        18

      Number of irreps:                  1
      Integral cutoff                 0.00e+00
      Number of functions per irrep: [  18 ]

 OEINTS: Overlap, kinetic, potential, dipole, and quadrupole integrals
         stored in file 35.

      Computing two-electron integrals...done
      Computed 2060 non-zero two-electron integrals.
        Stored in file 33.


*** tstart() called on odysseus
*** at Tue Jun 27 15:03:11 2017


	Wfn Parameters:
	--------------------
	Wavefunction         = CCSD_T
	Number of irreps     = 1
	Number of MOs        = 18
	Number of active MOs = 18
	AO-Basis             = NONE
	Semicanonical        = false
	Reference            = RHF
	Print Level          = 1

	IRREP	# MOs	# FZDC	# DOCC	# SOCC	# VIRT	# FZVR
	-----	-----	------	------	------	------	------
	 A	   18	    0	    9	    0	    9	    0
	Transforming integrals...
	IWL integrals will be deleted.
	(OO|OO)...
	Presorting SO-basis two-electron integrals.
	Sorting File: SO Ints (nn|nn) nbuckets = 1
	Transforming the one-electron integrals and constructing Fock matrices
	Starting first half-transformation.
	Sorting half-transformed integrals.
	First half integral transformation complete.
	Starting second half-transformation.
	Two-electron integral transformation complete.
	(OO|OV)...
	Starting second half-transformation.
	Two-electron integral transformation complete.
	(OO|VV)...
	Starting second half-transformation.
	Two-electron integral transformation complete.
	(OV|OO)...
	Starting first half-transformation.
	Sorting half-transformed integrals.
	First half integral transformation complete.
	Starting second half-transformation.
	Two-electron integral transformation complete.
	(OV|OV)...
	Starting second half-transformation.
	Two-electron integral transformation complete.
	(OV|VV)...
	Starting second half-transformation.
	Two-electron integral transformation complete.
	(VV|OO)...
	Starting first half-transformation.
	Sorting half-transformed integrals.
	First half integral transformation complete.
	Starting second half-transformation.
	Two-electron integral transformation complete.
	(VV|OV)...
	Starting second half-transformation.
	Two-electron integral transformation complete.
	(VV|VV)...
	Starting second half-transformation.
	Two-electron integral transformation complete.
	Frozen core energy     =      0.00000000000000

	Size of irrep 0 of <ab|cd> integrals:      0.007 (MW) /      0.052 (MB)
	Total:                                     0.007 (MW) /      0.052 (MB)

	Size of irrep 0 of <ia|bc> integrals:      0.007 (MW) /      0.052 (MB)
	Total:                                     0.007 (MW) /      0.052 (MB)

	Size of irrep 0 of tijab amplitudes:       0.007 (MW) /      0.052 (MB)
	Total:                                     0.007 (MW) /      0.052 (MB)

	Nuclear Rep. energy          =      0.00000000000000
	SCF energy                   =   -459.37124023856376
	One-electron energy          =   -642.24573664368506
	Two-electron energy          =    182.87449640512125
	Reference energy             =   -459.37124023856381

*** tstop() called on odysseus at Tue Jun 27 15:03:11 2017
Module time:
	user time   =       0.19 seconds =       0.00 minutes
	system time =       0.02 seconds =       0.00 minutes
	total time  =          0 seconds =       0.00 minutes
Total time:
	user time   =       1.04 seconds =       0.02 minutes
	system time =       0.06 seconds =       0.00 minutes
	total time  =          0 seconds =       0.00 minutes

*** tstart() called on odysseus
*** at Tue Jun 27 15:03:11 2017

            **************************
            *                        *
            *        CCENERGY        *
            *                        *
            **************************

    Nuclear Rep. energy (wfn)     =    0.000000000000000
    SCF energy          (wfn)     = -459.371240238563757
    Reference energy    (file100) = -459.371240238563814

    Input parameters:
    -----------------
    Wave function   =     CCSD_T
    Reference wfn   =     RHF
    Brueckner       =     No
    Memory (Mbytes) =     2000.0
    Maxiter         =     50
    R_Convergence   =     1.0e-07
    E_Convergence   =     1.0e-06
    Restart         =     Yes
    DIIS            =     Yes
    AO Basis        =     NONE
    ABCD            =     NEW
    Cache Level     =     2
    Cache Type      =     LOW
    Print Level     =     1
    Num. of threads =     4
    # Amps to Print =     10
    Print MP2 Amps? =     No
    Analyze T2 Amps =     No
    Print Pair Ener =     No
    Local CC        =     No
    SCS-MP2         =     False
    SCSN-MP2        =     False
    SCS-CCSD        =     False

MP2 correlation energy -0.1382941292124488
                Solving CC Amplitude Equations
                ------------------------------
  Iter             Energy              RMS        T1Diag      D1Diag    New D1Diag    D2Diag
  ----     ---------------------    ---------   ----------  ----------  ----------   --------
     0        -0.138294129212449    0.000e+00    0.000000    0.000000    0.000000    0.093279
     1        -0.147372421626488    2.300e-02    0.002291    0.005491    0.005491    0.102313
     2        -0.149360851814545    5.767e-03    0.002681    0.006494    0.006494    0.105058
     3        -0.149416052990296    8.640e-04    0.002686    0.006544    0.006544    0.105345
     4        -0.149424074059074    1.400e-04    0.002695    0.006572    0.006572    0.105355
     5        -0.149422168552573    2.781e-05    0.002697    0.006579    0.006579    0.105351
     6        -0.149422369382560    2.573e-06    0.002697    0.006579    0.006579    0.105351
     7        -0.149422349761326    4.035e-07    0.002697    0.006579    0.006579    0.105351
     8        -0.149422348189899    6.156e-08    0.002697    0.006579    0.006579    0.105351

    Iterations converged.


    Largest TIA Amplitudes:
              8   7         0.0064203767
              7   6         0.0047995939
              6   8        -0.0047772821
              6   6         0.0043612324
              7   8         0.0042959047
              2   8         0.0010391717
              8   8        -0.0009138997
              4   6        -0.0008802187
              3   7         0.0008616000
              5   0         0.0008319958

    Largest TIjAb Amplitudes:
      8   8   3   3        -0.0380963331
      6   6   5   5        -0.0335514376
      7   7   2   2        -0.0328121937
      8   8   4   4        -0.0324780951
      8   8   7   7        -0.0322632102
      8   8   1   1        -0.0305038736
      7   7   5   5        -0.0294755999
      6   6   2   2        -0.0285477560
      5   8   0   7        -0.0244300489
      8   5   7   0        -0.0244300489

    SCF energy       (wfn)                    = -459.371240238563757
    Reference energy (file100)                = -459.371240238563814

    Opposite-spin MP2 correlation energy      =   -0.100796862895207
    Same-spin MP2 correlation energy          =   -0.037497266317242
    MP2 correlation energy                    =   -0.138294129212449
      * MP2 total energy                      = -459.509534367776268

    Opposite-spin CCSD correlation energy     =   -0.113072119822715
    Same-spin CCSD correlation energy         =   -0.036350228299350
    CCSD correlation energy                   =   -0.149422348189899
      * CCSD total energy                     = -459.520662586753701


*** tstop() called on odysseus at Tue Jun 27 15:03:11 2017
Module time:
	user time   =       0.43 seconds =       0.01 minutes
	system time =       0.14 seconds =       0.00 minutes
	total time  =          0 seconds =       0.00 minutes
Total time:
	user time   =       1.47 seconds =       0.02 minutes
	system time =       0.20 seconds =       0.00 minutes
	total time  =          0 seconds =       0.00 minutes

*** tstart() called on odysseus
*** at Tue Jun 27 15:03:11 2017

            **************************
            *                        *
            *        CCTRIPLES       *
            *                        *
            **************************


    Wave function   =    CCSD_T
    Reference wfn   =      RHF

    Nuclear Rep. energy (wfn)                =    0.000000000000000
    SCF energy          (wfn)                = -459.371240238563757
    Reference energy    (file100)            = -459.371240238563814
    CCSD energy         (file100)            =   -0.149422348189899
    Total CCSD energy   (file100)            = -459.520662586753701

    Number of ijk index combinations:              165
    Memory available in words        :       250000000
    ~Words needed per explicit thread:            2916
    Number of threads for explicit ijk threading:    4

    MKL num_threads set to 1 for explicit threading.

    (T) energy                                =   -0.001176403420409
      * CCSD(T) total energy                  = -459.521838990174103


*** tstop() called on odysseus at Tue Jun 27 15:03:11 2017
Module time:
	user time   =       0.03 seconds =       0.00 minutes
	system time =       0.02 seconds =       0.00 minutes
	total time  =          0 seconds =       0.00 minutes
Total time:
	user time   =       1.50 seconds =       0.03 minutes
	system time =       0.22 seconds =       0.00 minutes
	total time  =          0 seconds =       0.00 minutes

       N-Body: Complex Energy (fragments = (2,), basis = (2,):  -459.52183899017410)

       N-Body: Computing complex (2/2) with fragments (1,) in the basis of fragments (1,).


*** tstart() called on odysseus
*** at Tue Jun 27 15:03:11 2017

   => Loading Basis Set <=

    Name: DEF2-SVP
    Role: ORBITAL
    Keyword: BASIS
    atoms 1 entry NA         line   189 file /home/eric/opt/apps/python/psi4conda/share/psi4/basis/def2-svp.gbs 


         ---------------------------------------------------------
                                   SCF
            by Justin Turney, Rob Parrish, and Andy Simmonett
                              RHF Reference
                        4 Threads,   1907 MiB Core
         ---------------------------------------------------------

  ==> Geometry <==

    Molecular point group: c1
    Geometry (in Angstrom), charge = 1, multiplicity = 1:

       Center              X                  Y                   Z               Mass       
    ------------   -----------------  -----------------  -----------------  -----------------
          NA          0.000000000000     0.000000000000     0.000000000000    22.989769280870

  Running in c1 symmetry.

  Rotational constants: A = ************  B = ************  C = ************ [cm^-1]
  Rotational constants: A = ************  B = ************  C = ************ [MHz]
  Nuclear repulsion =    0.000000000000000

  Charge       = 1
  Multiplicity = 1
  Electrons    = 10
  Nalpha       = 5
  Nbeta        = 5

  ==> Algorithm <==

  SCF Algorithm Type is PK.
  DIIS enabled.
  MOM disabled.
  Fractional occupation disabled.
  Guess Type is CORE.
  Energy threshold   = 1.00e-08
  Density threshold  = 1.00e-08
  Integral threshold = 0.00e+00

  ==> Primary Basis <==

  Basis Set: DEF2-SVP
    Blend: DEF2-SVP
    Number of shells: 7
    Number of basis function: 15
    Number of Cartesian functions: 16
    Spherical Harmonics?: true
    Max angular momentum: 2

  ==> Pre-Iterations <==

   -------------------------------------------------------
    Irrep   Nso     Nmo     Nalpha   Nbeta   Ndocc  Nsocc
   -------------------------------------------------------
     A         15      15       0       0       0       0
   -------------------------------------------------------
    Total      15      15       5       5       5       0
   -------------------------------------------------------

  ==> Integral Setup <==

  Using in-core PK algorithm.
   Calculation information:
      Number of atoms:                   1
      Number of AO shells:               7
      Number of primitives:             17
      Number of atomic orbitals:        16
      Number of basis functions:        15

      Integral cutoff                 1.00e-12
      Number of threads:                 4

  Performing in-core PK
  Using 14520 doubles for integral storage.
  We computed 901 shell quartets total.
  Whereas there are 406 unique shell quartets.
   121.92 percent of shell quartets recomputed by reordering.
  ==> DiskJK: Disk-Based J/K Matrices <==

    J tasked:                  Yes
    K tasked:                  Yes
    wK tasked:                  No
    Memory (MB):              1430
    Schwarz Cutoff:          1E-12

    OpenMP threads:              4
  Minimum eigenvalue in the overlap matrix is 6.3507281460E-02.
  Using Symmetric Orthogonalization.

  SCF Guess: Core (One-Electron) Hamiltonian.

  ==> Iterations <==

                        Total Energy        Delta E     RMS |[F,P]|

   @RHF iter   1:  -161.51219839889609   -1.61512e+02   6.27169e-02 
   @RHF iter   2:  -161.61209769938051   -9.98993e-02   5.25120e-03 DIIS
   @RHF iter   3:  -161.61342973839996   -1.33204e-03   5.52682e-05 DIIS
   @RHF iter   4:  -161.61342984526195   -1.06862e-07   4.45885e-06 DIIS
   @RHF iter   5:  -161.61342984567946   -4.17515e-10   8.31866e-08 DIIS
   @RHF iter   6:  -161.61342984567972   -2.55795e-13   6.98043e-09 DIIS

  ==> Post-Iterations <==

    Orbital Energies (a.u.)
    -----------------------

    Doubly Occupied:                                                      

       1A    -40.767634     2A     -3.080931     3A     -1.805299  
       4A     -1.805299     5A     -1.805299  

    Virtual:                                                              

       6A     -0.179090     7A     -0.097734     8A     -0.097734  
       9A     -0.097734    10A     -0.029313    11A      0.142643  
      12A      0.142643    13A      0.142643    14A      0.142643  
      15A      0.142643  

    Final Occupation by Irrep:
              A 
    DOCC [     5 ]

  Energy converged.

  @RHF Final Energy:  -161.61342984567972

   => Energetics <=

    Nuclear Repulsion Energy =              0.0000000000000000
    One-Electron Energy =                -224.6979380902388073
    Two-Electron Energy =                  63.0845082445590890
    DFT Exchange-Correlation Energy =       0.0000000000000000
    Empirical Dispersion Energy =           0.0000000000000000
    PCM Polarization Energy =               0.0000000000000000
    EFP Energy =                            0.0000000000000000
    Total Energy =                       -161.6134298456797183



Properties will be evaluated at   0.000000,   0.000000,   0.000000 Bohr

Properties computed using the SCF density matrix

  Nuclear Dipole Moment: (a.u.)
     X:     0.0000      Y:     0.0000      Z:     0.0000

  Electronic Dipole Moment: (a.u.)
     X:     0.0000      Y:    -0.0000      Z:     0.0000

  Dipole Moment: (a.u.)
     X:     0.0000      Y:    -0.0000      Z:     0.0000     Total:     0.0000

  Dipole Moment: (Debye)
     X:     0.0000      Y:    -0.0000      Z:     0.0000     Total:     0.0000


*** tstop() called on odysseus at Tue Jun 27 15:03:12 2017
Module time:
	user time   =       0.51 seconds =       0.01 minutes
	system time =       0.02 seconds =       0.00 minutes
	total time  =          1 seconds =       0.02 minutes
Total time:
	user time   =       2.02 seconds =       0.03 minutes
	system time =       0.24 seconds =       0.00 minutes
	total time  =          1 seconds =       0.02 minutes
 MINTS: Wrapper to libmints.
   by Justin Turney

   Calculation information:
      Number of threads:                 4
      Number of atoms:                   1
      Number of AO shells:               7
      Number of SO shells:               7
      Number of primitives:             17
      Number of atomic orbitals:        16
      Number of basis functions:        15

      Number of irreps:                  1
      Integral cutoff                 0.00e+00
      Number of functions per irrep: [  15 ]

 OEINTS: Overlap, kinetic, potential, dipole, and quadrupole integrals
         stored in file 35.

      Computing two-electron integrals...done
      Computed 1043 non-zero two-electron integrals.
        Stored in file 33.


*** tstart() called on odysseus
*** at Tue Jun 27 15:03:12 2017


	Wfn Parameters:
	--------------------
	Wavefunction         = CCSD_T
	Number of irreps     = 1
	Number of MOs        = 15
	Number of active MOs = 15
	AO-Basis             = NONE
	Semicanonical        = false
	Reference            = RHF
	Print Level          = 1

	IRREP	# MOs	# FZDC	# DOCC	# SOCC	# VIRT	# FZVR
	-----	-----	------	------	------	------	------
	 A	   15	    0	    5	    0	    10	    0
	Transforming integrals...
	IWL integrals will be deleted.
	(OO|OO)...
	Presorting SO-basis two-electron integrals.
	Sorting File: SO Ints (nn|nn) nbuckets = 1
	Transforming the one-electron integrals and constructing Fock matrices
	Starting first half-transformation.
	Sorting half-transformed integrals.
	First half integral transformation complete.
	Starting second half-transformation.
	Two-electron integral transformation complete.
	(OO|OV)...
	Starting second half-transformation.
	Two-electron integral transformation complete.
	(OO|VV)...
	Starting second half-transformation.
	Two-electron integral transformation complete.
	(OV|OO)...
	Starting first half-transformation.
	Sorting half-transformed integrals.
	First half integral transformation complete.
	Starting second half-transformation.
	Two-electron integral transformation complete.
	(OV|OV)...
	Starting second half-transformation.
	Two-electron integral transformation complete.
	(OV|VV)...
	Starting second half-transformation.
	Two-electron integral transformation complete.
	(VV|OO)...
	Starting first half-transformation.
	Sorting half-transformed integrals.
	First half integral transformation complete.
	Starting second half-transformation.
	Two-electron integral transformation complete.
	(VV|OV)...
	Starting second half-transformation.
	Two-electron integral transformation complete.
	(VV|VV)...
	Starting second half-transformation.
	Two-electron integral transformation complete.
	Frozen core energy     =      0.00000000000000

	Size of irrep 0 of <ab|cd> integrals:      0.010 (MW) /      0.080 (MB)
	Total:                                     0.010 (MW) /      0.080 (MB)

	Size of irrep 0 of <ia|bc> integrals:      0.005 (MW) /      0.040 (MB)
	Total:                                     0.005 (MW) /      0.040 (MB)

	Size of irrep 0 of tijab amplitudes:       0.003 (MW) /      0.020 (MB)
	Total:                                     0.003 (MW) /      0.020 (MB)

	Nuclear Rep. energy          =      0.00000000000000
	SCF energy                   =   -161.61342984567972
	One-electron energy          =   -224.69793794283180
	Two-electron energy          =     63.08450809715212
	Reference energy             =   -161.61342984567969

*** tstop() called on odysseus at Tue Jun 27 15:03:12 2017
Module time:
	user time   =       0.18 seconds =       0.00 minutes
	system time =       0.04 seconds =       0.00 minutes
	total time  =          0 seconds =       0.00 minutes
Total time:
	user time   =       2.53 seconds =       0.04 minutes
	system time =       0.28 seconds =       0.00 minutes
	total time  =          1 seconds =       0.02 minutes

*** tstart() called on odysseus
*** at Tue Jun 27 15:03:12 2017

            **************************
            *                        *
            *        CCENERGY        *
            *                        *
            **************************

    Nuclear Rep. energy (wfn)     =    0.000000000000000
    SCF energy          (wfn)     = -161.613429845679718
    Reference energy    (file100) = -161.613429845679690

    Input parameters:
    -----------------
    Wave function   =     CCSD_T
    Reference wfn   =     RHF
    Brueckner       =     No
    Memory (Mbytes) =     2000.0
    Maxiter         =     50
    R_Convergence   =     1.0e-07
    E_Convergence   =     1.0e-06
    Restart         =     Yes
    DIIS            =     Yes
    AO Basis        =     NONE
    ABCD            =     NEW
    Cache Level     =     2
    Cache Type      =     LOW
    Print Level     =     1
    Num. of threads =     4
    # Amps to Print =     10
    Print MP2 Amps? =     No
    Analyze T2 Amps =     No
    Print Pair Ener =     No
    Local CC        =     No
    SCS-MP2         =     False
    SCSN-MP2        =     False
    SCS-CCSD        =     False

MP2 correlation energy -0.0005235190763155
                Solving CC Amplitude Equations
                ------------------------------
  Iter             Energy              RMS        T1Diag      D1Diag    New D1Diag    D2Diag
  ----     ---------------------    ---------   ----------  ----------  ----------   --------
     0        -0.000523519076315    0.000e+00    0.000000    0.000000    0.000000    0.006727
     1        -0.000478644454110    1.565e-03    0.000324    0.000555    0.000555    0.006118
     2        -0.000487257313046    2.704e-04    0.000334    0.000572    0.000572    0.006205
     3        -0.000487487529447    3.702e-05    0.000344    0.000589    0.000589    0.006208
     4        -0.000487481411975    4.965e-06    0.000345    0.000591    0.000591    0.006208
     5        -0.000487481074285    2.657e-07    0.000345    0.000591    0.000591    0.006208
     6        -0.000487481032759    2.400e-08    0.000345    0.000591    0.000591    0.006208

    Iterations converged.


    Largest TIA Amplitudes:
              2   3        -0.0005421325
              3   2        -0.0004705980
              4   1        -0.0004615704
              3   1        -0.0003454915
              4   2         0.0002979372
              1   0        -0.0002717484
              1   4        -0.0002613674
              4   3        -0.0002166085
              2   2        -0.0001962242
              2   1         0.0001277552

    Largest TIjAb Amplitudes:
      1   1   4   4        -0.0015522833
      2   2   3   3        -0.0014703633
      1   1   0   4        -0.0014579986
      1   1   4   0        -0.0014579986
      1   2   4   3        -0.0014124148
      2   1   3   4        -0.0014124148
      1   1   0   0        -0.0013667725
      1   2   0   3        -0.0013524038
      2   1   3   0        -0.0013524038
      1   3   4   2        -0.0012260464

    SCF energy       (wfn)                    = -161.613429845679718
    Reference energy (file100)                = -161.613429845679690

    Opposite-spin MP2 correlation energy      =   -0.000405305750176
    Same-spin MP2 correlation energy          =   -0.000118213326140
    MP2 correlation energy                    =   -0.000523519076316
      * MP2 total energy                      = -161.613953364756014

    Opposite-spin CCSD correlation energy     =   -0.000372556006476
    Same-spin CCSD correlation energy         =   -0.000114925037210
    CCSD correlation energy                   =   -0.000487481032759
      * CCSD total energy                     = -161.613917326712453


*** tstop() called on odysseus at Tue Jun 27 15:03:12 2017
Module time:
	user time   =       0.43 seconds =       0.01 minutes
	system time =       0.12 seconds =       0.00 minutes
	total time  =          0 seconds =       0.00 minutes
Total time:
	user time   =       2.96 seconds =       0.05 minutes
	system time =       0.40 seconds =       0.01 minutes
	total time  =          1 seconds =       0.02 minutes

*** tstart() called on odysseus
*** at Tue Jun 27 15:03:12 2017

            **************************
            *                        *
            *        CCTRIPLES       *
            *                        *
            **************************


    Wave function   =    CCSD_T
    Reference wfn   =      RHF

    Nuclear Rep. energy (wfn)                =    0.000000000000000
    SCF energy          (wfn)                = -161.613429845679718
    Reference energy    (file100)            = -161.613429845679690
    CCSD energy         (file100)            =   -0.000487481032759
    Total CCSD energy   (file100)            = -161.613917326712453

    Number of ijk index combinations:               35
    Memory available in words        :       250000000
    ~Words needed per explicit thread:            4000
    Number of threads for explicit ijk threading:    4

    MKL num_threads set to 1 for explicit threading.

    (T) energy                                =   -0.000004519500908
      * CCSD(T) total energy                  = -161.613921846213344


*** tstop() called on odysseus at Tue Jun 27 15:03:12 2017
Module time:
	user time   =       0.00 seconds =       0.00 minutes
	system time =       0.02 seconds =       0.00 minutes
	total time  =          0 seconds =       0.00 minutes
Total time:
	user time   =       2.96 seconds =       0.05 minutes
	system time =       0.42 seconds =       0.01 minutes
	total time  =          1 seconds =       0.02 minutes

       N-Body: Complex Energy (fragments = (1,), basis = (1,):  -161.61392184621334)

   ==> N-Body: Now computing 2-body complexes <==


       N-Body: Computing complex (1/1) with fragments (1, 2) in the basis of fragments (1, 2).


*** tstart() called on odysseus
*** at Tue Jun 27 15:03:12 2017

   => Loading Basis Set <=

    Name: DEF2-SVP
    Role: ORBITAL
    Keyword: BASIS
    atoms 1 entry NA         line   189 file /home/eric/opt/apps/python/psi4conda/share/psi4/basis/def2-svp.gbs 
    atoms 2 entry CL         line   355 file /home/eric/opt/apps/python/psi4conda/share/psi4/basis/def2-svp.gbs 


         ---------------------------------------------------------
                                   SCF
            by Justin Turney, Rob Parrish, and Andy Simmonett
                              RHF Reference
                        4 Threads,   1907 MiB Core
         ---------------------------------------------------------

  ==> Geometry <==

    Molecular point group: c1
    Full point group: C_inf_v

    Geometry (in Angstrom), charge = 0, multiplicity = 1:

       Center              X                  Y                   Z               Mass       
    ------------   -----------------  -----------------  -----------------  -----------------
          NA          0.000000000000     0.000000000000     0.000000000000    22.989769280870
          CL          0.000000000000     0.000000000000     2.402786884547    34.968852682000

  Running in c1 symmetry.

  Rotational constants: A = ************  B =      0.08350  C =      0.08350 [cm^-1]
  Rotational constants: A = ************  B =   2503.25624  C =   2503.25624 [MHz]
  Nuclear repulsion =   41.183901345035977

  Charge       = 0
  Multiplicity = 1
  Electrons    = 28
  Nalpha       = 14
  Nbeta        = 14

  ==> Algorithm <==

  SCF Algorithm Type is PK.
  DIIS enabled.
  MOM disabled.
  Fractional occupation disabled.
  Guess Type is SAD.
  Energy threshold   = 1.00e-08
  Density threshold  = 1.00e-08
  Integral threshold = 0.00e+00

  ==> Primary Basis <==

  Basis Set: DEF2-SVP
    Blend: DEF2-SVP
    Number of shells: 15
    Number of basis function: 33
    Number of Cartesian functions: 35
    Spherical Harmonics?: true
    Max angular momentum: 2

  ==> Pre-Iterations <==

   -------------------------------------------------------
    Irrep   Nso     Nmo     Nalpha   Nbeta   Ndocc  Nsocc
   -------------------------------------------------------
     A         33      33       0       0       0       0
   -------------------------------------------------------
    Total      33      33      14      14      14       0
   -------------------------------------------------------

  ==> Integral Setup <==

  Using in-core PK algorithm.
   Calculation information:
      Number of atoms:                   2
      Number of AO shells:              15
      Number of primitives:             35
      Number of atomic orbitals:        35
      Number of basis functions:        33

      Integral cutoff                 1.00e-12
      Number of threads:                 4

  Performing in-core PK
  Using 315282 doubles for integral storage.
  We computed 10247 shell quartets total.
  Whereas there are 7260 unique shell quartets.
    41.14 percent of shell quartets recomputed by reordering.
  ==> DiskJK: Disk-Based J/K Matrices <==

    J tasked:                  Yes
    K tasked:                  Yes
    wK tasked:                  No
    Memory (MB):              1430
    Schwarz Cutoff:          1E-12

    OpenMP threads:              4
  Minimum eigenvalue in the overlap matrix is 3.9291891033E-02.
  Using Symmetric Orthogonalization.

  SCF Guess: Superposition of Atomic Densities via on-the-fly atomic UHF.

  ==> Iterations <==

                        Total Energy        Delta E     RMS |[F,P]|

   @RHF iter   0:  -621.04045774240137   -6.21040e+02   4.65040e-02 
   @RHF iter   1:  -621.18802307973817   -1.47565e-01   1.34711e-02 
   @RHF iter   2:  -621.21891753625323   -3.08945e-02   5.16946e-03 DIIS
   @RHF iter   3:  -621.22196370226027   -3.04617e-03   5.46950e-04 DIIS
   @RHF iter   4:  -621.22208567035102   -1.21968e-04   1.34669e-04 DIIS
   @RHF iter   5:  -621.22209665278433   -1.09824e-05   2.61582e-05 DIIS
   @RHF iter   6:  -621.22209724594154   -5.93157e-07   4.05980e-06 DIIS
   @RHF iter   7:  -621.22209725863877   -1.26972e-08   1.20791e-06 DIIS
   @RHF iter   8:  -621.22209725970640   -1.06763e-09   2.47797e-07 DIIS
   @RHF iter   9:  -621.22209725975301   -4.66116e-11   5.59584e-08 DIIS
   @RHF iter  10:  -621.22209725975472   -1.70530e-12   1.04976e-08 DIIS
   @RHF iter  11:  -621.22209725975517   -4.54747e-13   1.56656e-09 DIIS

  ==> Post-Iterations <==

    Orbital Energies (a.u.)
    -----------------------

    Doubly Occupied:                                                      

       1A   -104.644126     2A    -40.503914     3A    -10.404429  
       4A     -7.878391     5A     -7.877751     6A     -7.877751  
       7A     -2.827438     8A     -1.551624     9A     -1.551624  
      10A     -1.549989    11A     -0.919631    12A     -0.351080  
      13A     -0.335375    14A     -0.335375  

    Virtual:                                                              

      15A     -0.010585    16A      0.083310    17A      0.083310  
      18A      0.117635    19A      0.177142    20A      0.340873  
      21A      0.340873    22A      0.376813    23A      0.376813  
      24A      0.437931    25A      0.934032    26A      1.173430  
      27A      1.178504    28A      1.178504    29A      1.190485  
      30A      1.190485    31A      1.335655    32A      1.335655  
      33A      1.349843  

    Final Occupation by Irrep:
              A 
    DOCC [    14 ]

  Energy converged.

  @RHF Final Energy:  -621.22209725975517

   => Energetics <=

    Nuclear Repulsion Energy =             41.1839013450359772
    One-Electron Energy =                -947.5950025192806834
    Two-Electron Energy =                 285.1890039144895468
    DFT Exchange-Correlation Energy =       0.0000000000000000
    Empirical Dispersion Energy =           0.0000000000000000
    PCM Polarization Energy =               0.0000000000000000
    EFP Energy =                            0.0000000000000000
    Total Energy =                       -621.2220972597551736



Properties will be evaluated at   0.000000,   0.000000,   0.000000 Bohr

Properties computed using the SCF density matrix

  Nuclear Dipole Moment: (a.u.)
     X:     0.0000      Y:     0.0000      Z:    77.1904

  Electronic Dipole Moment: (a.u.)
     X:    -0.0000      Y:     0.0000      Z:   -80.7704

  Dipole Moment: (a.u.)
     X:    -0.0000      Y:     0.0000      Z:    -3.5801     Total:     3.5801

  Dipole Moment: (Debye)
     X:    -0.0000      Y:     0.0000      Z:    -9.0996     Total:     9.0996


*** tstop() called on odysseus at Tue Jun 27 15:03:13 2017
Module time:
	user time   =       1.86 seconds =       0.03 minutes
	system time =       0.04 seconds =       0.00 minutes
	total time  =          1 seconds =       0.02 minutes
Total time:
	user time   =       4.83 seconds =       0.08 minutes
	system time =       0.46 seconds =       0.01 minutes
	total time  =          2 seconds =       0.03 minutes
 MINTS: Wrapper to libmints.
   by Justin Turney

   Calculation information:
      Number of threads:                 4
      Number of atoms:                   2
      Number of AO shells:              15
      Number of SO shells:              15
      Number of primitives:             35
      Number of atomic orbitals:        35
      Number of basis functions:        33

      Number of irreps:                  1
      Integral cutoff                 0.00e+00
      Number of functions per irrep: [  33 ]

 OEINTS: Overlap, kinetic, potential, dipole, and quadrupole integrals
         stored in file 35.

      Computing two-electron integrals...done
      Computed 37484 non-zero two-electron integrals.
        Stored in file 33.


*** tstart() called on odysseus
*** at Tue Jun 27 15:03:13 2017


	Wfn Parameters:
	--------------------
	Wavefunction         = CCSD_T
	Number of irreps     = 1
	Number of MOs        = 33
	Number of active MOs = 33
	AO-Basis             = NONE
	Semicanonical        = false
	Reference            = RHF
	Print Level          = 1

	IRREP	# MOs	# FZDC	# DOCC	# SOCC	# VIRT	# FZVR
	-----	-----	------	------	------	------	------
	 A	   33	    0	    14	    0	    19	    0
	Transforming integrals...
	IWL integrals will be deleted.
	(OO|OO)...
	Presorting SO-basis two-electron integrals.
	Sorting File: SO Ints (nn|nn) nbuckets = 1
	Transforming the one-electron integrals and constructing Fock matrices
	Starting first half-transformation.
	Sorting half-transformed integrals.
	First half integral transformation complete.
	Starting second half-transformation.
	Two-electron integral transformation complete.
	(OO|OV)...
	Starting second half-transformation.
	Two-electron integral transformation complete.
	(OO|VV)...
	Starting second half-transformation.
	Two-electron integral transformation complete.
	(OV|OO)...
	Starting first half-transformation.
	Sorting half-transformed integrals.
	First half integral transformation complete.
	Starting second half-transformation.
	Two-electron integral transformation complete.
	(OV|OV)...
	Starting second half-transformation.
	Two-electron integral transformation complete.
	(OV|VV)...
	Starting second half-transformation.
	Two-electron integral transformation complete.
	(VV|OO)...
	Starting first half-transformation.
	Sorting half-transformed integrals.
	First half integral transformation complete.
	Starting second half-transformation.
	Two-electron integral transformation complete.
	(VV|OV)...
	Starting second half-transformation.
	Two-electron integral transformation complete.
	(VV|VV)...
	Starting second half-transformation.
	Two-electron integral transformation complete.
	Frozen core energy     =      0.00000000000000

	Size of irrep 0 of <ab|cd> integrals:      0.130 (MW) /      1.043 (MB)
	Total:                                     0.130 (MW) /      1.043 (MB)

	Size of irrep 0 of <ia|bc> integrals:      0.096 (MW) /      0.768 (MB)
	Total:                                     0.096 (MW) /      0.768 (MB)

	Size of irrep 0 of tijab amplitudes:       0.071 (MW) /      0.566 (MB)
	Total:                                     0.071 (MW) /      0.566 (MB)

	Nuclear Rep. energy          =     41.18390134503598
	SCF energy                   =   -621.22209725975517
	One-electron energy          =   -947.59500262477286
	Two-electron energy          =    285.18900401998218
	Reference energy             =   -621.22209725975472

*** tstop() called on odysseus at Tue Jun 27 15:03:13 2017
Module time:
	user time   =       0.45 seconds =       0.01 minutes
	system time =       0.07 seconds =       0.00 minutes
	total time  =          0 seconds =       0.00 minutes
Total time:
	user time   =       5.72 seconds =       0.10 minutes
	system time =       0.54 seconds =       0.01 minutes
	total time  =          2 seconds =       0.03 minutes

*** tstart() called on odysseus
*** at Tue Jun 27 15:03:13 2017

            **************************
            *                        *
            *        CCENERGY        *
            *                        *
            **************************

    Nuclear Rep. energy (wfn)     =   41.183901345035977
    SCF energy          (wfn)     = -621.222097259755174
    Reference energy    (file100) = -621.222097259754719

    Input parameters:
    -----------------
    Wave function   =     CCSD_T
    Reference wfn   =     RHF
    Brueckner       =     No
    Memory (Mbytes) =     2000.0
    Maxiter         =     50
    R_Convergence   =     1.0e-07
    E_Convergence   =     1.0e-06
    Restart         =     Yes
    DIIS            =     Yes
    AO Basis        =     NONE
    ABCD            =     NEW
    Cache Level     =     2
    Cache Type      =     LOW
    Print Level     =     1
    Num. of threads =     4
    # Amps to Print =     10
    Print MP2 Amps? =     No
    Analyze T2 Amps =     No
    Print Pair Ener =     No
    Local CC        =     No
    SCS-MP2         =     False
    SCSN-MP2        =     False
    SCS-CCSD        =     False

MP2 correlation energy -0.1474070194430273
                Solving CC Amplitude Equations
                ------------------------------
  Iter             Energy              RMS        T1Diag      D1Diag    New D1Diag    D2Diag
  ----     ---------------------    ---------   ----------  ----------  ----------   --------
     0        -0.147407019443027    0.000e+00    0.000000    0.000000    0.000000    0.102397
     1        -0.155716306762390    2.969e-02    0.003436    0.011740    0.011740    0.110234
     2        -0.157888530264339    9.991e-03    0.004171    0.014651    0.014651    0.113802
     3        -0.158399301310729    5.230e-03    0.004951    0.017913    0.017913    0.114758
     4        -0.158406916312101    1.803e-03    0.005347    0.019739    0.019739    0.115039
     5        -0.158388826183787    7.567e-04    0.005466    0.020401    0.020401    0.115074
     6        -0.158386873060313    2.522e-04    0.005511    0.020699    0.020699    0.115067
     7        -0.158386460652929    8.752e-05    0.005522    0.020798    0.020798    0.115068
     8        -0.158386542596977    3.277e-05    0.005522    0.020825    0.020825    0.115071
     9        -0.158386784012285    8.580e-06    0.005522    0.020830    0.020830    0.115072
    10        -0.158386777660695    3.356e-06    0.005522    0.020832    0.020832    0.115072
    11        -0.158386757465062    1.245e-06    0.005522    0.020832    0.020832    0.115072
    12        -0.158386745321906    3.065e-07    0.005522    0.020832    0.020832    0.115072
    13        -0.158386742691836    1.286e-07    0.005522    0.020832    0.020832    0.115072
    14        -0.158386742593494    4.194e-08    0.005522    0.020832    0.020832    0.115072

    Iterations converged.


    Largest TIA Amplitudes:
             11   0         0.0153106681
             11   4         0.0121213675
             13   1         0.0116941174
             12   2         0.0116941029
             12  17         0.0069477217
             13  16         0.0069477180
             11  18         0.0066492873
             13   7         0.0032948804
             12   8         0.0032948714
             10  10         0.0027550502

    Largest TIjAb Amplitudes:
     11  11  11  11        -0.0377599189
     12  12  12  12        -0.0315070592
     12  12  13  13        -0.0315070590
     13  13  13  13        -0.0315070587
     13  13  12  12        -0.0315070585
     12  12  14  14        -0.0313089684
     13  13  15  15        -0.0313089681
     12  12  17  17        -0.0263199087
     13  13  16  16        -0.0263199083
     11  11  18  18        -0.0246240227

    SCF energy       (wfn)                    = -621.222097259755174
    Reference energy (file100)                = -621.222097259754719

    Opposite-spin MP2 correlation energy      =   -0.107427042735164
    Same-spin MP2 correlation energy          =   -0.039979976707863
    MP2 correlation energy                    =   -0.147407019443027
      * MP2 total energy                      = -621.369504279197713

    Opposite-spin CCSD correlation energy     =   -0.120066533221888
    Same-spin CCSD correlation energy         =   -0.038320209378942
    CCSD correlation energy                   =   -0.158386742593494
      * CCSD total energy                     = -621.380484002348226


*** tstop() called on odysseus at Tue Jun 27 15:03:14 2017
Module time:
	user time   =       0.91 seconds =       0.02 minutes
	system time =       0.47 seconds =       0.01 minutes
	total time  =          1 seconds =       0.02 minutes
Total time:
	user time   =       6.63 seconds =       0.11 minutes
	system time =       1.01 seconds =       0.02 minutes
	total time  =          3 seconds =       0.05 minutes

*** tstart() called on odysseus
*** at Tue Jun 27 15:03:14 2017

            **************************
            *                        *
            *        CCTRIPLES       *
            *                        *
            **************************


    Wave function   =    CCSD_T
    Reference wfn   =      RHF

    Nuclear Rep. energy (wfn)                =   41.183901345035977
    SCF energy          (wfn)                = -621.222097259755174
    Reference energy    (file100)            = -621.222097259754719
    CCSD energy         (file100)            =   -0.158386742593494
    Total CCSD energy   (file100)            = -621.380484002348226

    Number of ijk index combinations:              560
    Memory available in words        :       250000000
    ~Words needed per explicit thread:           27436
    Number of threads for explicit ijk threading:    4

    MKL num_threads set to 1 for explicit threading.

    (T) energy                                =   -0.002328852553837
      * CCSD(T) total energy                  = -621.382812854901999


*** tstop() called on odysseus at Tue Jun 27 15:03:15 2017
Module time:
	user time   =       0.65 seconds =       0.01 minutes
	system time =       0.06 seconds =       0.00 minutes
	total time  =          1 seconds =       0.02 minutes
Total time:
	user time   =       7.28 seconds =       0.12 minutes
	system time =       1.07 seconds =       0.02 minutes
	total time  =          4 seconds =       0.07 minutes

       N-Body: Complex Energy (fragments = (1, 2), basis = (1, 2):  -621.38281285490200)

   ==> N-Body: Non-Counterpoise Corrected (NoCP)  energies <==

   n-Body     Total Energy [Eh]       I.E. [kcal/mol]      Delta [kcal/mol]
        1     -621.135760836387        0.000000000000        0.000000000000
        2     -621.382812854902     -155.027488612039     -155.027488612039

   => Loading Basis Set <=

    Name: STO-3G
    Role: ORBITAL
    Keyword: BASIS
    atoms 1 entry NA         line   110 file /home/eric/opt/apps/python/psi4conda/share/psi4/basis/sto-3g.gbs 
    atoms 2 entry CL         line   194 file /home/eric/opt/apps/python/psi4conda/share/psi4/basis/sto-3g.gbs 



  Variable Map:
  ----------------------------------------------------------------------------
  "(T) CORRECTION ENERGY"                         =>      -0.002328852554
  "CCSD CORRELATION ENERGY"                       =>      -0.158386742593
  "CCSD OPPOSITE-SPIN CORRELATION ENERGY"         =>      -0.120066533222
  "CCSD SAME-SPIN CORRELATION ENERGY"             =>      -0.038320209379
  "CCSD TOTAL ENERGY"                             =>    -621.380484002348
  "CCSD(T) CORRELATION ENERGY"                    =>      -0.160715595147
  "CCSD(T) TOTAL ENERGY"                          =>    -621.382812854902
  "CURRENT CORRELATION ENERGY"                    =>      -0.160715595147
  "CURRENT DIPOLE X"                              =>      -0.000000020048
  "CURRENT DIPOLE Y"                              =>       0.000000000247
  "CURRENT DIPOLE Z"                              =>      -9.099643216678
  "CURRENT ENERGY"                                =>      -0.247052018515
  "CURRENT REFERENCE ENERGY"                      =>    -621.222097259755
  "HF TOTAL ENERGY"                               =>    -621.222097259755
  "LCCSD (+LMP2) TOTAL ENERGY"                    =>    -621.380484002348
  "MP2 CORRELATION ENERGY"                        =>      -0.147407019443
  "MP2 OPPOSITE-SPIN CORRELATION ENERGY"          =>      -0.107427042735
  "MP2 SAME-SPIN CORRELATION ENERGY"              =>      -0.039979976708
  "MP2 TOTAL ENERGY"                              =>    -621.369504279198
  "NOCP-CORRECTED 2-BODY INTERACTION ENERGY"      =>      -0.247052018515
  "NON-COUNTERPOISE CORRECTED INTERACTION ENERGY" =>      -0.247052018515
  "NON-COUNTERPOISE CORRECTED TOTAL ENERGY"       =>    -621.382812854902
  "NUCLEAR REPULSION ENERGY"                      =>      41.183901345036
  "ONE-ELECTRON ENERGY"                           =>    -947.595002519281
  "PCM POLARIZATION ENERGY"                       =>       0.000000000000
  "SCF DIPOLE X"                                  =>      -0.000000020048
  "SCF DIPOLE Y"                                  =>       0.000000000247
  "SCF DIPOLE Z"                                  =>      -9.099643216678
  "SCF ITERATION ENERGY"                          =>    -621.222097259755
  "SCF ITERATIONS"                                =>      11.000000000000
  "SCF TOTAL ENERGY"                              =>    -621.222097259755
  "TWO-ELECTRON ENERGY"                           =>     285.189003914490



*** Psi4 exiting successfully. Buy a developer a beer!
