
    -----------------------------------------------------------------------
          Psi4: An Open-Source Ab Initio Electronic Structure Package
                               Psi4 1.1 release

                         Git: Rev {HEAD} add49b9 


    R. M. Parrish, L. A. Burns, D. G. A. Smith, A. C. Simmonett,
    A. E. DePrince III, E. G. Hohenstein, U. Bozkaya, A. Yu. Sokolov,
    R. Di Remigio, R. M. Richard, J. F. Gonthier, A. M. James,
    H. R. McAlexander, A. Kumar, M. Saitow, X. Wang, B. P. Pritchard,
    P. Verma, H. F. Schaefer III, K. Patkowski, R. A. King, E. F. Valeev,
    F. A. Evangelista, J. M. Turney, T. D. Crawford, and C. D. Sherrill,
    J. Chem. Theory Comput. in press (2017).
    (doi: 10.1021/acs.jctc.7b00174)

    -----------------------------------------------------------------------


    Psi4 started on: Tuesday, 27 June 2017 03:04PM

    Process ID:  16438
    PSIDATADIR: /home/eric/opt/apps/python/psi4conda/share/psi4
    Memory:     500.0 MiB
    Threads:    4
    
  ==> Input File <==

--------------------------------------------------------------------------
# -*- mode: python -*-

from __future__ import print_function

memory 2 gb

min_distance = 1.449701489552 + 0.953085394995
molecule dimer {
1 1
Na           0.000000000000     0.000000000000     0.000
--
-1 1
Cl           0.000000000000     0.000000000000     r

symmetry c1
units angstrom
no_reorient
no_com
}
dimer.r = min_distance

set {
    basis def2-svp
}

energy('ccsd(t)', bsse_type='cp')

print_variables()
--------------------------------------------------------------------------

  Memory set to   1.863 GiB by Python driver.
Setting geometry variable r to 2.402787


   ===> N-Body Interaction Abacus <===
        BSSE Treatment:                     cp
        Number of 1-body computations:     2
        Number of 2-body computations:     1

   ==> N-Body: Now computing 1-body complexes <==


       N-Body: Computing complex (1/2) with fragments (2,) in the basis of fragments (1, 2).


*** tstart() called on odysseus
*** at Tue Jun 27 15:04:56 2017

   => Loading Basis Set <=

    Name: DEF2-SVP
    Role: ORBITAL
    Keyword: BASIS
    atoms 1 entry NA         line   189 file /home/eric/opt/apps/python/psi4conda/share/psi4/basis/def2-svp.gbs 
    atoms 2 entry CL         line   355 file /home/eric/opt/apps/python/psi4conda/share/psi4/basis/def2-svp.gbs 


         ---------------------------------------------------------
                                   SCF
            by Justin Turney, Rob Parrish, and Andy Simmonett
                              RHF Reference
                        4 Threads,   1907 MiB Core
         ---------------------------------------------------------

  ==> Geometry <==

    Molecular point group: c1
    Full point group: C_inf_v

    Geometry (in Angstrom), charge = -1, multiplicity = 1:

       Center              X                  Y                   Z               Mass       
    ------------   -----------------  -----------------  -----------------  -----------------
          NA(Gh)      0.000000000000     0.000000000000     0.000000000000    22.989769280870
          CL          0.000000000000     0.000000000000     2.402786884547    34.968852682000

  Running in c1 symmetry.

  Rotational constants: A = ************  B =      0.08350  C =      0.08350 [cm^-1]
  Rotational constants: A = ************  B =   2503.25624  C =   2503.25624 [MHz]
  Nuclear repulsion =    0.000000000000000

  Charge       = -1
  Multiplicity = 1
  Electrons    = 18
  Nalpha       = 9
  Nbeta        = 9

  ==> Algorithm <==

  SCF Algorithm Type is PK.
  DIIS enabled.
  MOM disabled.
  Fractional occupation disabled.
  Guess Type is SAD.
  Energy threshold   = 1.00e-08
  Density threshold  = 1.00e-08
  Integral threshold = 0.00e+00

  ==> Primary Basis <==

  Basis Set: DEF2-SVP
    Blend: DEF2-SVP
    Number of shells: 15
    Number of basis function: 33
    Number of Cartesian functions: 35
    Spherical Harmonics?: true
    Max angular momentum: 2

  ==> Pre-Iterations <==

   -------------------------------------------------------
    Irrep   Nso     Nmo     Nalpha   Nbeta   Ndocc  Nsocc
   -------------------------------------------------------
     A         33      33       0       0       0       0
   -------------------------------------------------------
    Total      33      33       9       9       9       0
   -------------------------------------------------------

  ==> Integral Setup <==

  Using in-core PK algorithm.
   Calculation information:
      Number of atoms:                   2
      Number of AO shells:              15
      Number of primitives:             35
      Number of atomic orbitals:        35
      Number of basis functions:        33

      Integral cutoff                 1.00e-12
      Number of threads:                 4

  Performing in-core PK
  Using 315282 doubles for integral storage.
  We computed 10247 shell quartets total.
  Whereas there are 7260 unique shell quartets.
    41.14 percent of shell quartets recomputed by reordering.
  ==> DiskJK: Disk-Based J/K Matrices <==

    J tasked:                  Yes
    K tasked:                  Yes
    wK tasked:                  No
    Memory (MB):              1430
    Schwarz Cutoff:          1E-12

    OpenMP threads:              4
  Minimum eigenvalue in the overlap matrix is 3.9291891033E-02.
  Using Symmetric Orthogonalization.

  SCF Guess: Superposition of Atomic Densities via on-the-fly atomic UHF.

  ==> Iterations <==

                        Total Energy        Delta E     RMS |[F,P]|

   @RHF iter   0:  -475.30062221008166   -4.75301e+02   3.51380e-02 
   @RHF iter   1:  -458.33836397512374    1.69623e+01   6.55135e-02 
   @RHF iter   2:  -459.12292656690079   -7.84563e-01   4.34517e-02 DIIS
   @RHF iter   3:  -459.37345430314787   -2.50528e-01   9.68779e-03 DIIS
   @RHF iter   4:  -459.39114978966063   -1.76955e-02   9.65968e-04 DIIS
   @RHF iter   5:  -459.39152718671045   -3.77397e-04   2.56827e-04 DIIS
   @RHF iter   6:  -459.39157218117265   -4.49945e-05   4.03441e-05 DIIS
   @RHF iter   7:  -459.39157373996574   -1.55879e-06   9.30563e-06 DIIS
   @RHF iter   8:  -459.39157383884469   -9.88790e-08   1.82582e-06 DIIS
   @RHF iter   9:  -459.39157384026635   -1.42165e-09   4.28770e-07 DIIS
   @RHF iter  10:  -459.39157384032632   -5.99698e-11   7.34561e-08 DIIS
   @RHF iter  11:  -459.39157384033069   -4.37694e-12   1.09445e-08 DIIS
   @RHF iter  12:  -459.39157384033052    1.70530e-13   1.52721e-09 DIIS

  ==> Post-Iterations <==

    Orbital Energies (a.u.)
    -----------------------

    Doubly Occupied:                                                      

       1A   -104.420333     2A    -10.179075     3A     -7.652956  
       4A     -7.652956     5A     -7.652930     6A     -0.693502  
       7A     -0.117234     8A     -0.117234     9A     -0.115502  

    Virtual:                                                              

      10A      0.175545    11A      0.305907    12A      0.305907  
      13A      0.314324    14A      0.401432    15A      0.647519  
      16A      0.647519    17A      0.680738    18A      0.680738  
      19A      0.727532    20A      1.134084    21A      1.398112  
      22A      1.398112    23A      1.407202    24A      1.418623  
      25A      1.418623    26A      1.552460    27A      1.552460  
      28A      1.577561    29A      2.303051    30A      6.210939  
      31A      6.210939    32A      6.299942    33A     61.896817  

    Final Occupation by Irrep:
              A 
    DOCC [     9 ]

  Energy converged.

  @RHF Final Energy:  -459.39157384033052

   => Energetics <=

    Nuclear Repulsion Energy =              0.0000000000000000
    One-Electron Energy =                -641.5797024703475699
    Two-Electron Energy =                 182.1881286300170757
    DFT Exchange-Correlation Energy =       0.0000000000000000
    Empirical Dispersion Energy =           0.0000000000000000
    PCM Polarization Energy =               0.0000000000000000
    EFP Energy =                            0.0000000000000000
    Total Energy =                       -459.3915738403304658



Properties will be evaluated at   0.000000,   0.000000,   0.000000 Bohr

Properties computed using the SCF density matrix

  Nuclear Dipole Moment: (a.u.)
     X:     0.0000      Y:     0.0000      Z:    77.1904

  Electronic Dipole Moment: (a.u.)
     X:    -0.0000      Y:     0.0000      Z:   -81.1770

  Dipole Moment: (a.u.)
     X:    -0.0000      Y:     0.0000      Z:    -3.9867     Total:     3.9867

  Dipole Moment: (Debye)
     X:    -0.0000      Y:     0.0000      Z:   -10.1331     Total:    10.1331


*** tstop() called on odysseus at Tue Jun 27 15:04:57 2017
Module time:
	user time   =       1.89 seconds =       0.03 minutes
	system time =       0.04 seconds =       0.00 minutes
	total time  =          1 seconds =       0.02 minutes
Total time:
	user time   =       1.89 seconds =       0.03 minutes
	system time =       0.04 seconds =       0.00 minutes
	total time  =          1 seconds =       0.02 minutes
 MINTS: Wrapper to libmints.
   by Justin Turney

   Calculation information:
      Number of threads:                 4
      Number of atoms:                   2
      Number of AO shells:              15
      Number of SO shells:              15
      Number of primitives:             35
      Number of atomic orbitals:        35
      Number of basis functions:        33

      Number of irreps:                  1
      Integral cutoff                 0.00e+00
      Number of functions per irrep: [  33 ]

 OEINTS: Overlap, kinetic, potential, dipole, and quadrupole integrals
         stored in file 35.

      Computing two-electron integrals...done
      Computed 37484 non-zero two-electron integrals.
        Stored in file 33.


*** tstart() called on odysseus
*** at Tue Jun 27 15:04:57 2017


	Wfn Parameters:
	--------------------
	Wavefunction         = CCSD_T
	Number of irreps     = 1
	Number of MOs        = 33
	Number of active MOs = 33
	AO-Basis             = NONE
	Semicanonical        = false
	Reference            = RHF
	Print Level          = 1

	IRREP	# MOs	# FZDC	# DOCC	# SOCC	# VIRT	# FZVR
	-----	-----	------	------	------	------	------
	 A	   33	    0	    9	    0	    24	    0
	Transforming integrals...
	IWL integrals will be deleted.
	(OO|OO)...
	Presorting SO-basis two-electron integrals.
	Sorting File: SO Ints (nn|nn) nbuckets = 1
	Transforming the one-electron integrals and constructing Fock matrices
	Starting first half-transformation.
	Sorting half-transformed integrals.
	First half integral transformation complete.
	Starting second half-transformation.
	Two-electron integral transformation complete.
	(OO|OV)...
	Starting second half-transformation.
	Two-electron integral transformation complete.
	(OO|VV)...
	Starting second half-transformation.
	Two-electron integral transformation complete.
	(OV|OO)...
	Starting first half-transformation.
	Sorting half-transformed integrals.
	First half integral transformation complete.
	Starting second half-transformation.
	Two-electron integral transformation complete.
	(OV|OV)...
	Starting second half-transformation.
	Two-electron integral transformation complete.
	(OV|VV)...
	Starting second half-transformation.
	Two-electron integral transformation complete.
	(VV|OO)...
	Starting first half-transformation.
	Sorting half-transformed integrals.
	First half integral transformation complete.
	Starting second half-transformation.
	Two-electron integral transformation complete.
	(VV|OV)...
	Starting second half-transformation.
	Two-electron integral transformation complete.
	(VV|VV)...
	Starting second half-transformation.
	Two-electron integral transformation complete.
	Frozen core energy     =      0.00000000000000

	Size of irrep 0 of <ab|cd> integrals:      0.332 (MW) /      2.654 (MB)
	Total:                                     0.332 (MW) /      2.654 (MB)

	Size of irrep 0 of <ia|bc> integrals:      0.124 (MW) /      0.995 (MB)
	Total:                                     0.124 (MW) /      0.995 (MB)

	Size of irrep 0 of tijab amplitudes:       0.047 (MW) /      0.373 (MB)
	Total:                                     0.047 (MW) /      0.373 (MB)

	Nuclear Rep. energy          =      0.00000000000000
	SCF energy                   =   -459.39157384033052
	One-electron energy          =   -641.57970231616662
	Two-electron energy          =    182.18812847583621
	Reference energy             =   -459.39157384033041

*** tstop() called on odysseus at Tue Jun 27 15:04:57 2017
Module time:
	user time   =       0.40 seconds =       0.01 minutes
	system time =       0.05 seconds =       0.00 minutes
	total time  =          0 seconds =       0.00 minutes
Total time:
	user time   =       2.74 seconds =       0.05 minutes
	system time =       0.09 seconds =       0.00 minutes
	total time  =          1 seconds =       0.02 minutes

*** tstart() called on odysseus
*** at Tue Jun 27 15:04:57 2017

            **************************
            *                        *
            *        CCENERGY        *
            *                        *
            **************************

    Nuclear Rep. energy (wfn)     =    0.000000000000000
    SCF energy          (wfn)     = -459.391573840330523
    Reference energy    (file100) = -459.391573840330409

    Input parameters:
    -----------------
    Wave function   =     CCSD_T
    Reference wfn   =     RHF
    Brueckner       =     No
    Memory (Mbytes) =     2000.0
    Maxiter         =     50
    R_Convergence   =     1.0e-07
    E_Convergence   =     1.0e-06
    Restart         =     Yes
    DIIS            =     Yes
    AO Basis        =     NONE
    ABCD            =     NEW
    Cache Level     =     2
    Cache Type      =     LOW
    Print Level     =     1
    Num. of threads =     4
    # Amps to Print =     10
    Print MP2 Amps? =     No
    Analyze T2 Amps =     No
    Print Pair Ener =     No
    Local CC        =     No
    SCS-MP2         =     False
    SCSN-MP2        =     False
    SCS-CCSD        =     False

MP2 correlation energy -0.1453355770673051
                Solving CC Amplitude Equations
                ------------------------------
  Iter             Energy              RMS        T1Diag      D1Diag    New D1Diag    D2Diag
  ----     ---------------------    ---------   ----------  ----------  ----------   --------
     0        -0.145335577067305    0.000e+00    0.000000    0.000000    0.000000    0.101515
     1        -0.153868299266111    2.820e-02    0.003847    0.009961    0.009961    0.109757
     2        -0.156004485565266    9.300e-03    0.004787    0.012982    0.012982    0.113237
     3        -0.156419304364245    4.582e-03    0.005588    0.015586    0.015586    0.114069
     4        -0.156430592137473    1.698e-03    0.006030    0.017248    0.017248    0.114331
     5        -0.156417805191330    7.788e-04    0.006168    0.017881    0.017881    0.114365
     6        -0.156415797949843    3.114e-04    0.006236    0.018253    0.018253    0.114356
     7        -0.156415809592052    1.116e-04    0.006252    0.018376    0.018376    0.114359
     8        -0.156416134072455    4.044e-05    0.006251    0.018406    0.018406    0.114362
     9        -0.156416371449377    7.678e-06    0.006251    0.018407    0.018407    0.114363
    10        -0.156416379690521    3.090e-06    0.006251    0.018409    0.018409    0.114364
    11        -0.156416369341598    1.281e-06    0.006250    0.018410    0.018410    0.114364
    12        -0.156416361962105    3.337e-07    0.006251    0.018410    0.018410    0.114364
    13        -0.156416360945033    1.396e-07    0.006250    0.018410    0.018410    0.114364
    14        -0.156416361140138    5.135e-08    0.006250    0.018410    0.018410    0.114364

    Iterations converged.


    Largest TIA Amplitudes:
              8   4        -0.0126936939
              7   2        -0.0108877688
              6   1        -0.0108877654
              8   0         0.0106233846
              8  18        -0.0064875964
              6  16        -0.0064562163
              7  17        -0.0064562149
              5   4         0.0027278414
              5  10        -0.0026714691
              8   3        -0.0026681922

    Largest TIjAb Amplitudes:
      8   8  13  13        -0.0390508596
      6   6  11  11        -0.0317694474
      6   6  12  12        -0.0317694474
      7   7  12  12        -0.0317694472
      7   7  11  11        -0.0317694471
      6   6  15  15        -0.0311609925
      7   7  14  14        -0.0311609924
      6   6  16  16        -0.0267297172
      7   7  17  17        -0.0267297171
      8   8  18  18        -0.0252748355

    SCF energy       (wfn)                    = -459.391573840330523
    Reference energy (file100)                = -459.391573840330409

    Opposite-spin MP2 correlation energy      =   -0.105925445694212
    Same-spin MP2 correlation energy          =   -0.039410131373093
    MP2 correlation energy                    =   -0.145335577067305
      * MP2 total energy                      = -459.536909417397737

    Opposite-spin CCSD correlation energy     =   -0.118576300748733
    Same-spin CCSD correlation energy         =   -0.037840060473667
    CCSD correlation energy                   =   -0.156416361140138
      * CCSD total energy                     = -459.547990201470554


*** tstop() called on odysseus at Tue Jun 27 15:04:58 2017
Module time:
	user time   =       0.50 seconds =       0.01 minutes
	system time =       0.40 seconds =       0.01 minutes
	total time  =          1 seconds =       0.02 minutes
Total time:
	user time   =       3.24 seconds =       0.05 minutes
	system time =       0.49 seconds =       0.01 minutes
	total time  =          2 seconds =       0.03 minutes

*** tstart() called on odysseus
*** at Tue Jun 27 15:04:58 2017

            **************************
            *                        *
            *        CCTRIPLES       *
            *                        *
            **************************


    Wave function   =    CCSD_T
    Reference wfn   =      RHF

    Nuclear Rep. energy (wfn)                =    0.000000000000000
    SCF energy          (wfn)                = -459.391573840330523
    Reference energy    (file100)            = -459.391573840330409
    CCSD energy         (file100)            =   -0.156416361140138
    Total CCSD energy   (file100)            = -459.547990201470554

    Number of ijk index combinations:              165
    Memory available in words        :       250000000
    ~Words needed per explicit thread:           55296
    Number of threads for explicit ijk threading:    4

    MKL num_threads set to 1 for explicit threading.

    (T) energy                                =   -0.002082127158131
      * CCSD(T) total energy                  = -459.550072328628687


*** tstop() called on odysseus at Tue Jun 27 15:04:58 2017
Module time:
	user time   =       0.29 seconds =       0.00 minutes
	system time =       0.04 seconds =       0.00 minutes
	total time  =          0 seconds =       0.00 minutes
Total time:
	user time   =       3.53 seconds =       0.06 minutes
	system time =       0.53 seconds =       0.01 minutes
	total time  =          2 seconds =       0.03 minutes

       N-Body: Complex Energy (fragments = (2,), basis = (1, 2):  -459.55007232862869)

       N-Body: Computing complex (2/2) with fragments (1,) in the basis of fragments (1, 2).


*** tstart() called on odysseus
*** at Tue Jun 27 15:04:58 2017

   => Loading Basis Set <=

    Name: DEF2-SVP
    Role: ORBITAL
    Keyword: BASIS
    atoms 1 entry NA         line   189 file /home/eric/opt/apps/python/psi4conda/share/psi4/basis/def2-svp.gbs 
    atoms 2 entry CL         line   355 file /home/eric/opt/apps/python/psi4conda/share/psi4/basis/def2-svp.gbs 


         ---------------------------------------------------------
                                   SCF
            by Justin Turney, Rob Parrish, and Andy Simmonett
                              RHF Reference
                        4 Threads,   1907 MiB Core
         ---------------------------------------------------------

  ==> Geometry <==

    Molecular point group: c1
    Full point group: C_inf_v

    Geometry (in Angstrom), charge = 1, multiplicity = 1:

       Center              X                  Y                   Z               Mass       
    ------------   -----------------  -----------------  -----------------  -----------------
          NA          0.000000000000     0.000000000000     0.000000000000    22.989769280870
          CL(Gh)      0.000000000000     0.000000000000     2.402786884547    34.968852682000

  Running in c1 symmetry.

  Rotational constants: A = ************  B =      0.08350  C =      0.08350 [cm^-1]
  Rotational constants: A = ************  B =   2503.25624  C =   2503.25624 [MHz]
  Nuclear repulsion =    0.000000000000000

  Charge       = 1
  Multiplicity = 1
  Electrons    = 10
  Nalpha       = 5
  Nbeta        = 5

  ==> Algorithm <==

  SCF Algorithm Type is PK.
  DIIS enabled.
  MOM disabled.
  Fractional occupation disabled.
  Guess Type is SAD.
  Energy threshold   = 1.00e-08
  Density threshold  = 1.00e-08
  Integral threshold = 0.00e+00

  ==> Primary Basis <==

  Basis Set: DEF2-SVP
    Blend: DEF2-SVP
    Number of shells: 15
    Number of basis function: 33
    Number of Cartesian functions: 35
    Spherical Harmonics?: true
    Max angular momentum: 2

  ==> Pre-Iterations <==

   -------------------------------------------------------
    Irrep   Nso     Nmo     Nalpha   Nbeta   Ndocc  Nsocc
   -------------------------------------------------------
     A         33      33       0       0       0       0
   -------------------------------------------------------
    Total      33      33       5       5       5       0
   -------------------------------------------------------

  ==> Integral Setup <==

  Using in-core PK algorithm.
   Calculation information:
      Number of atoms:                   2
      Number of AO shells:              15
      Number of primitives:             35
      Number of atomic orbitals:        35
      Number of basis functions:        33

      Integral cutoff                 1.00e-12
      Number of threads:                 4

  Performing in-core PK
  Using 315282 doubles for integral storage.
  We computed 10247 shell quartets total.
  Whereas there are 7260 unique shell quartets.
    41.14 percent of shell quartets recomputed by reordering.
  ==> DiskJK: Disk-Based J/K Matrices <==

    J tasked:                  Yes
    K tasked:                  Yes
    wK tasked:                  No
    Memory (MB):              1430
    Schwarz Cutoff:          1E-12

    OpenMP threads:              4
  Minimum eigenvalue in the overlap matrix is 3.9291891033E-02.
  Using Symmetric Orthogonalization.

  SCF Guess: Superposition of Atomic Densities via on-the-fly atomic UHF.

  ==> Iterations <==

                        Total Energy        Delta E     RMS |[F,P]|

   @RHF iter   0:  -152.48685498331378   -1.52487e+02   1.25323e-02 
   @RHF iter   1:  -161.60265164988837   -9.11580e+00   9.57639e-03 
   @RHF iter   2:  -161.61345780264520   -1.08062e-02   9.32854e-04 DIIS
   @RHF iter   3:  -161.61356972740316   -1.11925e-04   2.19826e-05 DIIS
   @RHF iter   4:  -161.61356978922697   -6.18238e-08   1.85821e-06 DIIS
   @RHF iter   5:  -161.61356978977864   -5.51665e-10   1.18640e-07 DIIS
   @RHF iter   6:  -161.61356978978125   -2.61480e-12   7.48128e-09 DIIS

  ==> Post-Iterations <==

    Orbital Energies (a.u.)
    -----------------------

    Doubly Occupied:                                                      

       1A    -40.768836     2A     -3.081481     3A     -1.805888  
       4A     -1.805888     5A     -1.805657  

    Virtual:                                                              

       6A     -0.179219     7A     -0.098059     8A     -0.097765  
       9A     -0.097765    10A     -0.029951    11A      0.088185  
      12A      0.134571    13A      0.134571    14A      0.142600  
      15A      0.142600    16A      0.274717    17A      0.382825  
      18A      0.391192    19A      0.391192    20A      1.076648  
      21A      2.056398    22A      2.065876    23A      2.065876  
      24A      2.076974    25A      2.076974    26A      2.270546  
      27A      2.270546    28A      2.276481    29A      7.631932  
      30A     24.339797    31A     24.339797    32A     24.369376  
      33A    156.031997  

    Final Occupation by Irrep:
              A 
    DOCC [     5 ]

  Energy converged.

  @RHF Final Energy:  -161.61356978978125

   => Energetics <=

    Nuclear Repulsion Energy =              0.0000000000000000
    One-Electron Energy =                -224.6916409452542212
    Two-Electron Energy =                  63.0780711554729763
    DFT Exchange-Correlation Energy =       0.0000000000000000
    Empirical Dispersion Energy =           0.0000000000000000
    PCM Polarization Energy =               0.0000000000000000
    EFP Energy =                            0.0000000000000000
    Total Energy =                       -161.6135697897812520



Properties will be evaluated at   0.000000,   0.000000,   0.000000 Bohr

Properties computed using the SCF density matrix

  Nuclear Dipole Moment: (a.u.)
     X:     0.0000      Y:     0.0000      Z:     0.0000

  Electronic Dipole Moment: (a.u.)
     X:    -0.0000      Y:     0.0000      Z:     0.0009

  Dipole Moment: (a.u.)
     X:    -0.0000      Y:     0.0000      Z:     0.0009     Total:     0.0009

  Dipole Moment: (Debye)
     X:    -0.0000      Y:     0.0000      Z:     0.0022     Total:     0.0022


*** tstop() called on odysseus at Tue Jun 27 15:04:59 2017
Module time:
	user time   =       1.82 seconds =       0.03 minutes
	system time =       0.05 seconds =       0.00 minutes
	total time  =          1 seconds =       0.02 minutes
Total time:
	user time   =       5.36 seconds =       0.09 minutes
	system time =       0.58 seconds =       0.01 minutes
	total time  =          3 seconds =       0.05 minutes
 MINTS: Wrapper to libmints.
   by Justin Turney

   Calculation information:
      Number of threads:                 4
      Number of atoms:                   2
      Number of AO shells:              15
      Number of SO shells:              15
      Number of primitives:             35
      Number of atomic orbitals:        35
      Number of basis functions:        33

      Number of irreps:                  1
      Integral cutoff                 0.00e+00
      Number of functions per irrep: [  33 ]

 OEINTS: Overlap, kinetic, potential, dipole, and quadrupole integrals
         stored in file 35.

      Computing two-electron integrals...done
      Computed 37484 non-zero two-electron integrals.
        Stored in file 33.


*** tstart() called on odysseus
*** at Tue Jun 27 15:04:59 2017


	Wfn Parameters:
	--------------------
	Wavefunction         = CCSD_T
	Number of irreps     = 1
	Number of MOs        = 33
	Number of active MOs = 33
	AO-Basis             = NONE
	Semicanonical        = false
	Reference            = RHF
	Print Level          = 1

	IRREP	# MOs	# FZDC	# DOCC	# SOCC	# VIRT	# FZVR
	-----	-----	------	------	------	------	------
	 A	   33	    0	    5	    0	    28	    0
	Transforming integrals...
	IWL integrals will be deleted.
	(OO|OO)...
	Presorting SO-basis two-electron integrals.
	Sorting File: SO Ints (nn|nn) nbuckets = 1
	Transforming the one-electron integrals and constructing Fock matrices
	Starting first half-transformation.
	Sorting half-transformed integrals.
	First half integral transformation complete.
	Starting second half-transformation.
	Two-electron integral transformation complete.
	(OO|OV)...
	Starting second half-transformation.
	Two-electron integral transformation complete.
	(OO|VV)...
	Starting second half-transformation.
	Two-electron integral transformation complete.
	(OV|OO)...
	Starting first half-transformation.
	Sorting half-transformed integrals.
	First half integral transformation complete.
	Starting second half-transformation.
	Two-electron integral transformation complete.
	(OV|OV)...
	Starting second half-transformation.
	Two-electron integral transformation complete.
	(OV|VV)...
	Starting second half-transformation.
	Two-electron integral transformation complete.
	(VV|OO)...
	Starting first half-transformation.
	Sorting half-transformed integrals.
	First half integral transformation complete.
	Starting second half-transformation.
	Two-electron integral transformation complete.
	(VV|OV)...
	Starting second half-transformation.
	Two-electron integral transformation complete.
	(VV|VV)...
	Starting second half-transformation.
	Two-electron integral transformation complete.
	Frozen core energy     =      0.00000000000000

	Size of irrep 0 of <ab|cd> integrals:      0.615 (MW) /      4.917 (MB)
	Total:                                     0.615 (MW) /      4.917 (MB)

	Size of irrep 0 of <ia|bc> integrals:      0.110 (MW) /      0.878 (MB)
	Total:                                     0.110 (MW) /      0.878 (MB)

	Size of irrep 0 of tijab amplitudes:       0.020 (MW) /      0.157 (MB)
	Total:                                     0.020 (MW) /      0.157 (MB)

	Nuclear Rep. energy          =      0.00000000000000
	SCF energy                   =   -161.61356978978125
	One-electron energy          =   -224.69164089651136
	Two-electron energy          =     63.07807110673035
	Reference energy             =   -161.61356978978102

*** tstop() called on odysseus at Tue Jun 27 15:04:59 2017
Module time:
	user time   =       0.44 seconds =       0.01 minutes
	system time =       0.06 seconds =       0.00 minutes
	total time  =          0 seconds =       0.00 minutes
Total time:
	user time   =       6.24 seconds =       0.10 minutes
	system time =       0.65 seconds =       0.01 minutes
	total time  =          3 seconds =       0.05 minutes

*** tstart() called on odysseus
*** at Tue Jun 27 15:04:59 2017

            **************************
            *                        *
            *        CCENERGY        *
            *                        *
            **************************

    Nuclear Rep. energy (wfn)     =    0.000000000000000
    SCF energy          (wfn)     = -161.613569789781252
    Reference energy    (file100) = -161.613569789781025

    Input parameters:
    -----------------
    Wave function   =     CCSD_T
    Reference wfn   =     RHF
    Brueckner       =     No
    Memory (Mbytes) =     2000.0
    Maxiter         =     50
    R_Convergence   =     1.0e-07
    E_Convergence   =     1.0e-06
    Restart         =     Yes
    DIIS            =     Yes
    AO Basis        =     NONE
    ABCD            =     NEW
    Cache Level     =     2
    Cache Type      =     LOW
    Print Level     =     1
    Num. of threads =     4
    # Amps to Print =     10
    Print MP2 Amps? =     No
    Analyze T2 Amps =     No
    Print Pair Ener =     No
    Local CC        =     No
    SCS-MP2         =     False
    SCSN-MP2        =     False
    SCS-CCSD        =     False

MP2 correlation energy -0.0006999008642829
                Solving CC Amplitude Equations
                ------------------------------
  Iter             Energy              RMS        T1Diag      D1Diag    New D1Diag    D2Diag
  ----     ---------------------    ---------   ----------  ----------  ----------   --------
     0        -0.000699900864283    0.000e+00    0.000000    0.000000    0.000000    0.007480
     1        -0.000649027316330    1.725e-03    0.000389    0.000712    0.000712    0.006896
     2        -0.000659855648158    2.887e-04    0.000407    0.000755    0.000755    0.006986
     3        -0.000660216182080    4.627e-05    0.000419    0.000780    0.000780    0.006989
     4        -0.000660209379950    5.815e-06    0.000420    0.000783    0.000783    0.006989
     5        -0.000660208757685    3.799e-07    0.000420    0.000783    0.000783    0.006989
     6        -0.000660208714469    6.307e-08    0.000420    0.000783    0.000783    0.006989

    Iterations converged.


    Largest TIA Amplitudes:
              4   1        -0.0006847808
              2   2        -0.0005316248
              3   3         0.0005316248
              2   3        -0.0004363562
              3   2        -0.0004363562
              4  11        -0.0003212724
              1   0        -0.0003186203
              1   4        -0.0003021599
              4  14        -0.0001066772
              4  10         0.0001004694

    Largest TIjAb Amplitudes:
      4   4   1   1        -0.0017442552
      1   4   4   1        -0.0015170739
      4   1   1   4        -0.0015170739
      1   1   4   4        -0.0015029240
      1   4   0   1        -0.0014716968
      4   1   1   0        -0.0014716968
      1   1   0   4        -0.0014317558
      1   1   4   0        -0.0014317558
      1   1   0   0        -0.0013612236
      1   2   4   2        -0.0011711781

    SCF energy       (wfn)                    = -161.613569789781252
    Reference energy (file100)                = -161.613569789781025

    Opposite-spin MP2 correlation energy      =   -0.000539545497276
    Same-spin MP2 correlation energy          =   -0.000160355367006
    MP2 correlation energy                    =   -0.000699900864283
      * MP2 total energy                      = -161.614269690645301

    Opposite-spin CCSD correlation energy     =   -0.000502694801971
    Same-spin CCSD correlation energy         =   -0.000157513921116
    CCSD correlation energy                   =   -0.000660208714469
      * CCSD total energy                     = -161.614229998495489


*** tstop() called on odysseus at Tue Jun 27 15:05:00 2017
Module time:
	user time   =       0.21 seconds =       0.00 minutes
	system time =       0.17 seconds =       0.00 minutes
	total time  =          1 seconds =       0.02 minutes
Total time:
	user time   =       6.45 seconds =       0.11 minutes
	system time =       0.82 seconds =       0.01 minutes
	total time  =          4 seconds =       0.07 minutes

*** tstart() called on odysseus
*** at Tue Jun 27 15:05:00 2017

            **************************
            *                        *
            *        CCTRIPLES       *
            *                        *
            **************************


    Wave function   =    CCSD_T
    Reference wfn   =      RHF

    Nuclear Rep. energy (wfn)                =    0.000000000000000
    SCF energy          (wfn)                = -161.613569789781252
    Reference energy    (file100)            = -161.613569789781025
    CCSD energy         (file100)            =   -0.000660208714469
    Total CCSD energy   (file100)            = -161.614229998495489

    Number of ijk index combinations:               35
    Memory available in words        :       250000000
    ~Words needed per explicit thread:           87808
    Number of threads for explicit ijk threading:    4

    MKL num_threads set to 1 for explicit threading.

    (T) energy                                =   -0.000006812116446
      * CCSD(T) total energy                  = -161.614236810611942


*** tstop() called on odysseus at Tue Jun 27 15:05:00 2017
Module time:
	user time   =       0.08 seconds =       0.00 minutes
	system time =       0.01 seconds =       0.00 minutes
	total time  =          0 seconds =       0.00 minutes
Total time:
	user time   =       6.53 seconds =       0.11 minutes
	system time =       0.83 seconds =       0.01 minutes
	total time  =          4 seconds =       0.07 minutes

       N-Body: Complex Energy (fragments = (1,), basis = (1, 2):  -161.61423681061194)

   ==> N-Body: Now computing 2-body complexes <==


       N-Body: Computing complex (1/1) with fragments (1, 2) in the basis of fragments (1, 2).


*** tstart() called on odysseus
*** at Tue Jun 27 15:05:00 2017

   => Loading Basis Set <=

    Name: DEF2-SVP
    Role: ORBITAL
    Keyword: BASIS
    atoms 1 entry NA         line   189 file /home/eric/opt/apps/python/psi4conda/share/psi4/basis/def2-svp.gbs 
    atoms 2 entry CL         line   355 file /home/eric/opt/apps/python/psi4conda/share/psi4/basis/def2-svp.gbs 


         ---------------------------------------------------------
                                   SCF
            by Justin Turney, Rob Parrish, and Andy Simmonett
                              RHF Reference
                        4 Threads,   1907 MiB Core
         ---------------------------------------------------------

  ==> Geometry <==

    Molecular point group: c1
    Full point group: C_inf_v

    Geometry (in Angstrom), charge = 0, multiplicity = 1:

       Center              X                  Y                   Z               Mass       
    ------------   -----------------  -----------------  -----------------  -----------------
          NA          0.000000000000     0.000000000000     0.000000000000    22.989769280870
          CL          0.000000000000     0.000000000000     2.402786884547    34.968852682000

  Running in c1 symmetry.

  Rotational constants: A = ************  B =      0.08350  C =      0.08350 [cm^-1]
  Rotational constants: A = ************  B =   2503.25624  C =   2503.25624 [MHz]
  Nuclear repulsion =   41.183901345035977

  Charge       = 0
  Multiplicity = 1
  Electrons    = 28
  Nalpha       = 14
  Nbeta        = 14

  ==> Algorithm <==

  SCF Algorithm Type is PK.
  DIIS enabled.
  MOM disabled.
  Fractional occupation disabled.
  Guess Type is SAD.
  Energy threshold   = 1.00e-08
  Density threshold  = 1.00e-08
  Integral threshold = 0.00e+00

  ==> Primary Basis <==

  Basis Set: DEF2-SVP
    Blend: DEF2-SVP
    Number of shells: 15
    Number of basis function: 33
    Number of Cartesian functions: 35
    Spherical Harmonics?: true
    Max angular momentum: 2

  ==> Pre-Iterations <==

   -------------------------------------------------------
    Irrep   Nso     Nmo     Nalpha   Nbeta   Ndocc  Nsocc
   -------------------------------------------------------
     A         33      33       0       0       0       0
   -------------------------------------------------------
    Total      33      33      14      14      14       0
   -------------------------------------------------------

  ==> Integral Setup <==

  Using in-core PK algorithm.
   Calculation information:
      Number of atoms:                   2
      Number of AO shells:              15
      Number of primitives:             35
      Number of atomic orbitals:        35
      Number of basis functions:        33

      Integral cutoff                 1.00e-12
      Number of threads:                 4

  Performing in-core PK
  Using 315282 doubles for integral storage.
  We computed 10247 shell quartets total.
  Whereas there are 7260 unique shell quartets.
    41.14 percent of shell quartets recomputed by reordering.
  ==> DiskJK: Disk-Based J/K Matrices <==

    J tasked:                  Yes
    K tasked:                  Yes
    wK tasked:                  No
    Memory (MB):              1430
    Schwarz Cutoff:          1E-12

    OpenMP threads:              4
  Minimum eigenvalue in the overlap matrix is 3.9291891033E-02.
  Using Symmetric Orthogonalization.

  SCF Guess: Superposition of Atomic Densities via on-the-fly atomic UHF.

  ==> Iterations <==

                        Total Energy        Delta E     RMS |[F,P]|

   @RHF iter   0:  -621.04045774240137   -6.21040e+02   4.65040e-02 
   @RHF iter   1:  -621.18802307973817   -1.47565e-01   1.34711e-02 
   @RHF iter   2:  -621.21891753625323   -3.08945e-02   5.16946e-03 DIIS
   @RHF iter   3:  -621.22196370226027   -3.04617e-03   5.46950e-04 DIIS
   @RHF iter   4:  -621.22208567035102   -1.21968e-04   1.34669e-04 DIIS
   @RHF iter   5:  -621.22209665278433   -1.09824e-05   2.61582e-05 DIIS
   @RHF iter   6:  -621.22209724594154   -5.93157e-07   4.05980e-06 DIIS
   @RHF iter   7:  -621.22209725863877   -1.26972e-08   1.20791e-06 DIIS
   @RHF iter   8:  -621.22209725970640   -1.06763e-09   2.47797e-07 DIIS
   @RHF iter   9:  -621.22209725975301   -4.66116e-11   5.59584e-08 DIIS
   @RHF iter  10:  -621.22209725975472   -1.70530e-12   1.04976e-08 DIIS
   @RHF iter  11:  -621.22209725975517   -4.54747e-13   1.56656e-09 DIIS

  ==> Post-Iterations <==

    Orbital Energies (a.u.)
    -----------------------

    Doubly Occupied:                                                      

       1A   -104.644126     2A    -40.503914     3A    -10.404429  
       4A     -7.878391     5A     -7.877751     6A     -7.877751  
       7A     -2.827438     8A     -1.551624     9A     -1.551624  
      10A     -1.549989    11A     -0.919631    12A     -0.351080  
      13A     -0.335375    14A     -0.335375  

    Virtual:                                                              

      15A     -0.010585    16A      0.083310    17A      0.083310  
      18A      0.117635    19A      0.177142    20A      0.340873  
      21A      0.340873    22A      0.376813    23A      0.376813  
      24A      0.437931    25A      0.934032    26A      1.173430  
      27A      1.178504    28A      1.178504    29A      1.190485  
      30A      1.190485    31A      1.335655    32A      1.335655  
      33A      1.349843  

    Final Occupation by Irrep:
              A 
    DOCC [    14 ]

  Energy converged.

  @RHF Final Energy:  -621.22209725975517

   => Energetics <=

    Nuclear Repulsion Energy =             41.1839013450359772
    One-Electron Energy =                -947.5950025192806834
    Two-Electron Energy =                 285.1890039144895468
    DFT Exchange-Correlation Energy =       0.0000000000000000
    Empirical Dispersion Energy =           0.0000000000000000
    PCM Polarization Energy =               0.0000000000000000
    EFP Energy =                            0.0000000000000000
    Total Energy =                       -621.2220972597551736



Properties will be evaluated at   0.000000,   0.000000,   0.000000 Bohr

Properties computed using the SCF density matrix

  Nuclear Dipole Moment: (a.u.)
     X:     0.0000      Y:     0.0000      Z:    77.1904

  Electronic Dipole Moment: (a.u.)
     X:    -0.0000      Y:     0.0000      Z:   -80.7704

  Dipole Moment: (a.u.)
     X:    -0.0000      Y:     0.0000      Z:    -3.5801     Total:     3.5801

  Dipole Moment: (Debye)
     X:    -0.0000      Y:     0.0000      Z:    -9.0996     Total:     9.0996


*** tstop() called on odysseus at Tue Jun 27 15:05:00 2017
Module time:
	user time   =       1.85 seconds =       0.03 minutes
	system time =       0.05 seconds =       0.00 minutes
	total time  =          0 seconds =       0.00 minutes
Total time:
	user time   =       8.39 seconds =       0.14 minutes
	system time =       0.89 seconds =       0.01 minutes
	total time  =          4 seconds =       0.07 minutes
 MINTS: Wrapper to libmints.
   by Justin Turney

   Calculation information:
      Number of threads:                 4
      Number of atoms:                   2
      Number of AO shells:              15
      Number of SO shells:              15
      Number of primitives:             35
      Number of atomic orbitals:        35
      Number of basis functions:        33

      Number of irreps:                  1
      Integral cutoff                 0.00e+00
      Number of functions per irrep: [  33 ]

 OEINTS: Overlap, kinetic, potential, dipole, and quadrupole integrals
         stored in file 35.

      Computing two-electron integrals...done
      Computed 37484 non-zero two-electron integrals.
        Stored in file 33.


*** tstart() called on odysseus
*** at Tue Jun 27 15:05:00 2017


	Wfn Parameters:
	--------------------
	Wavefunction         = CCSD_T
	Number of irreps     = 1
	Number of MOs        = 33
	Number of active MOs = 33
	AO-Basis             = NONE
	Semicanonical        = false
	Reference            = RHF
	Print Level          = 1

	IRREP	# MOs	# FZDC	# DOCC	# SOCC	# VIRT	# FZVR
	-----	-----	------	------	------	------	------
	 A	   33	    0	    14	    0	    19	    0
	Transforming integrals...
	IWL integrals will be deleted.
	(OO|OO)...
	Presorting SO-basis two-electron integrals.
	Sorting File: SO Ints (nn|nn) nbuckets = 1
	Transforming the one-electron integrals and constructing Fock matrices
	Starting first half-transformation.
	Sorting half-transformed integrals.
	First half integral transformation complete.
	Starting second half-transformation.
	Two-electron integral transformation complete.
	(OO|OV)...
	Starting second half-transformation.
	Two-electron integral transformation complete.
	(OO|VV)...
	Starting second half-transformation.
	Two-electron integral transformation complete.
	(OV|OO)...
	Starting first half-transformation.
	Sorting half-transformed integrals.
	First half integral transformation complete.
	Starting second half-transformation.
	Two-electron integral transformation complete.
	(OV|OV)...
	Starting second half-transformation.
	Two-electron integral transformation complete.
	(OV|VV)...
	Starting second half-transformation.
	Two-electron integral transformation complete.
	(VV|OO)...
	Starting first half-transformation.
	Sorting half-transformed integrals.
	First half integral transformation complete.
	Starting second half-transformation.
	Two-electron integral transformation complete.
	(VV|OV)...
	Starting second half-transformation.
	Two-electron integral transformation complete.
	(VV|VV)...
	Starting second half-transformation.
	Two-electron integral transformation complete.
	Frozen core energy     =      0.00000000000000

	Size of irrep 0 of <ab|cd> integrals:      0.130 (MW) /      1.043 (MB)
	Total:                                     0.130 (MW) /      1.043 (MB)

	Size of irrep 0 of <ia|bc> integrals:      0.096 (MW) /      0.768 (MB)
	Total:                                     0.096 (MW) /      0.768 (MB)

	Size of irrep 0 of tijab amplitudes:       0.071 (MW) /      0.566 (MB)
	Total:                                     0.071 (MW) /      0.566 (MB)

	Nuclear Rep. energy          =     41.18390134503598
	SCF energy                   =   -621.22209725975517
	One-electron energy          =   -947.59500262477286
	Two-electron energy          =    285.18900401998218
	Reference energy             =   -621.22209725975472

*** tstop() called on odysseus at Tue Jun 27 15:05:01 2017
Module time:
	user time   =       0.49 seconds =       0.01 minutes
	system time =       0.07 seconds =       0.00 minutes
	total time  =          1 seconds =       0.02 minutes
Total time:
	user time   =       9.31 seconds =       0.16 minutes
	system time =       0.98 seconds =       0.02 minutes
	total time  =          5 seconds =       0.08 minutes

*** tstart() called on odysseus
*** at Tue Jun 27 15:05:01 2017

            **************************
            *                        *
            *        CCENERGY        *
            *                        *
            **************************

    Nuclear Rep. energy (wfn)     =   41.183901345035977
    SCF energy          (wfn)     = -621.222097259755174
    Reference energy    (file100) = -621.222097259754719

    Input parameters:
    -----------------
    Wave function   =     CCSD_T
    Reference wfn   =     RHF
    Brueckner       =     No
    Memory (Mbytes) =     2000.0
    Maxiter         =     50
    R_Convergence   =     1.0e-07
    E_Convergence   =     1.0e-06
    Restart         =     Yes
    DIIS            =     Yes
    AO Basis        =     NONE
    ABCD            =     NEW
    Cache Level     =     2
    Cache Type      =     LOW
    Print Level     =     1
    Num. of threads =     4
    # Amps to Print =     10
    Print MP2 Amps? =     No
    Analyze T2 Amps =     No
    Print Pair Ener =     No
    Local CC        =     No
    SCS-MP2         =     False
    SCSN-MP2        =     False
    SCS-CCSD        =     False

MP2 correlation energy -0.1474070194430273
                Solving CC Amplitude Equations
                ------------------------------
  Iter             Energy              RMS        T1Diag      D1Diag    New D1Diag    D2Diag
  ----     ---------------------    ---------   ----------  ----------  ----------   --------
     0        -0.147407019443027    0.000e+00    0.000000    0.000000    0.000000    0.102397
     1        -0.155716306762390    2.969e-02    0.003436    0.011740    0.011740    0.110234
     2        -0.157888530264339    9.991e-03    0.004171    0.014651    0.014651    0.113802
     3        -0.158399301310729    5.230e-03    0.004951    0.017913    0.017913    0.114758
     4        -0.158406916312101    1.803e-03    0.005347    0.019739    0.019739    0.115039
     5        -0.158388826183787    7.567e-04    0.005466    0.020401    0.020401    0.115074
     6        -0.158386873060313    2.522e-04    0.005511    0.020699    0.020699    0.115067
     7        -0.158386460652929    8.752e-05    0.005522    0.020798    0.020798    0.115068
     8        -0.158386542596977    3.277e-05    0.005522    0.020825    0.020825    0.115071
     9        -0.158386784012285    8.580e-06    0.005522    0.020830    0.020830    0.115072
    10        -0.158386777660695    3.356e-06    0.005522    0.020832    0.020832    0.115072
    11        -0.158386757465062    1.245e-06    0.005522    0.020832    0.020832    0.115072
    12        -0.158386745321906    3.065e-07    0.005522    0.020832    0.020832    0.115072
    13        -0.158386742691836    1.286e-07    0.005522    0.020832    0.020832    0.115072
    14        -0.158386742593494    4.194e-08    0.005522    0.020832    0.020832    0.115072

    Iterations converged.


    Largest TIA Amplitudes:
             11   0         0.0153106681
             11   4         0.0121213675
             13   1         0.0116941174
             12   2         0.0116941029
             12  17         0.0069477217
             13  16         0.0069477180
             11  18         0.0066492873
             13   7         0.0032948804
             12   8         0.0032948714
             10  10         0.0027550502

    Largest TIjAb Amplitudes:
     11  11  11  11        -0.0377599189
     12  12  12  12        -0.0315070592
     12  12  13  13        -0.0315070590
     13  13  13  13        -0.0315070587
     13  13  12  12        -0.0315070585
     12  12  14  14        -0.0313089684
     13  13  15  15        -0.0313089681
     12  12  17  17        -0.0263199087
     13  13  16  16        -0.0263199083
     11  11  18  18        -0.0246240227

    SCF energy       (wfn)                    = -621.222097259755174
    Reference energy (file100)                = -621.222097259754719

    Opposite-spin MP2 correlation energy      =   -0.107427042735164
    Same-spin MP2 correlation energy          =   -0.039979976707863
    MP2 correlation energy                    =   -0.147407019443027
      * MP2 total energy                      = -621.369504279197713

    Opposite-spin CCSD correlation energy     =   -0.120066533221888
    Same-spin CCSD correlation energy         =   -0.038320209378942
    CCSD correlation energy                   =   -0.158386742593494
      * CCSD total energy                     = -621.380484002348226


*** tstop() called on odysseus at Tue Jun 27 15:05:02 2017
Module time:
	user time   =       0.73 seconds =       0.01 minutes
	system time =       0.51 seconds =       0.01 minutes
	total time  =          1 seconds =       0.02 minutes
Total time:
	user time   =      10.04 seconds =       0.17 minutes
	system time =       1.49 seconds =       0.02 minutes
	total time  =          6 seconds =       0.10 minutes

*** tstart() called on odysseus
*** at Tue Jun 27 15:05:02 2017

            **************************
            *                        *
            *        CCTRIPLES       *
            *                        *
            **************************


    Wave function   =    CCSD_T
    Reference wfn   =      RHF

    Nuclear Rep. energy (wfn)                =   41.183901345035977
    SCF energy          (wfn)                = -621.222097259755174
    Reference energy    (file100)            = -621.222097259754719
    CCSD energy         (file100)            =   -0.158386742593494
    Total CCSD energy   (file100)            = -621.380484002348226

    Number of ijk index combinations:              560
    Memory available in words        :       250000000
    ~Words needed per explicit thread:           27436
    Number of threads for explicit ijk threading:    4

    MKL num_threads set to 1 for explicit threading.

    (T) energy                                =   -0.002328852553837
      * CCSD(T) total energy                  = -621.382812854901999


*** tstop() called on odysseus at Tue Jun 27 15:05:03 2017
Module time:
	user time   =       0.67 seconds =       0.01 minutes
	system time =       0.05 seconds =       0.00 minutes
	total time  =          1 seconds =       0.02 minutes
Total time:
	user time   =      10.71 seconds =       0.18 minutes
	system time =       1.54 seconds =       0.03 minutes
	total time  =          7 seconds =       0.12 minutes

       N-Body: Complex Energy (fragments = (1, 2), basis = (1, 2):  -621.38281285490200)

   ==> N-Body: Counterpoise Corrected (CP)  energies <==

   n-Body     Total Energy [Eh]       I.E. [kcal/mol]      Delta [kcal/mol]
        1     -621.164309139241        0.000000000000        0.000000000000
        2     -621.382812854902     -137.113157362773     -137.113157362773

   => Loading Basis Set <=

    Name: STO-3G
    Role: ORBITAL
    Keyword: BASIS
    atoms 1 entry NA         line   110 file /home/eric/opt/apps/python/psi4conda/share/psi4/basis/sto-3g.gbs 
    atoms 2 entry CL         line   194 file /home/eric/opt/apps/python/psi4conda/share/psi4/basis/sto-3g.gbs 



  Variable Map:
  ----------------------------------------------------------------------------
  "(T) CORRECTION ENERGY"                     =>      -0.002328852554
  "CCSD CORRELATION ENERGY"                   =>      -0.158386742593
  "CCSD OPPOSITE-SPIN CORRELATION ENERGY"     =>      -0.120066533222
  "CCSD SAME-SPIN CORRELATION ENERGY"         =>      -0.038320209379
  "CCSD TOTAL ENERGY"                         =>    -621.380484002348
  "CCSD(T) CORRELATION ENERGY"                =>      -0.160715595147
  "CCSD(T) TOTAL ENERGY"                      =>    -621.382812854902
  "COUNTERPOISE CORRECTED INTERACTION ENERGY" =>      -0.218503715661
  "COUNTERPOISE CORRECTED TOTAL ENERGY"       =>    -621.382812854902
  "CP-CORRECTED 2-BODY INTERACTION ENERGY"    =>      -0.218503715661
  "CURRENT CORRELATION ENERGY"                =>      -0.160715595147
  "CURRENT DIPOLE X"                          =>      -0.000000020048
  "CURRENT DIPOLE Y"                          =>       0.000000000247
  "CURRENT DIPOLE Z"                          =>      -9.099643216678
  "CURRENT ENERGY"                            =>      -0.218503715661
  "CURRENT REFERENCE ENERGY"                  =>    -621.222097259755
  "HF TOTAL ENERGY"                           =>    -621.222097259755
  "LCCSD (+LMP2) TOTAL ENERGY"                =>    -621.380484002348
  "MP2 CORRELATION ENERGY"                    =>      -0.147407019443
  "MP2 OPPOSITE-SPIN CORRELATION ENERGY"      =>      -0.107427042735
  "MP2 SAME-SPIN CORRELATION ENERGY"          =>      -0.039979976708
  "MP2 TOTAL ENERGY"                          =>    -621.369504279198
  "NUCLEAR REPULSION ENERGY"                  =>      41.183901345036
  "ONE-ELECTRON ENERGY"                       =>    -947.595002519281
  "PCM POLARIZATION ENERGY"                   =>       0.000000000000
  "SCF DIPOLE X"                              =>      -0.000000020048
  "SCF DIPOLE Y"                              =>       0.000000000247
  "SCF DIPOLE Z"                              =>      -9.099643216678
  "SCF ITERATION ENERGY"                      =>    -621.222097259755
  "SCF ITERATIONS"                            =>      11.000000000000
  "SCF TOTAL ENERGY"                          =>    -621.222097259755
  "TWO-ELECTRON ENERGY"                       =>     285.189003914490



*** Psi4 exiting successfully. Buy a developer a beer!
