
    -----------------------------------------------------------------------
          Psi4: An Open-Source Ab Initio Electronic Structure Package
                               Psi4 1.1 release

                         Git: Rev {HEAD} add49b9 


    R. M. Parrish, L. A. Burns, D. G. A. Smith, A. C. Simmonett,
    A. E. DePrince III, E. G. Hohenstein, U. Bozkaya, A. Yu. Sokolov,
    R. Di Remigio, R. M. Richard, J. F. Gonthier, A. M. James,
    H. R. McAlexander, A. Kumar, M. Saitow, X. Wang, B. P. Pritchard,
    P. Verma, H. F. Schaefer III, K. Patkowski, R. A. King, E. F. Valeev,
    F. A. Evangelista, J. M. Turney, T. D. Crawford, and C. D. Sherrill,
    J. Chem. Theory Comput. in press (2017).
    (doi: 10.1021/acs.jctc.7b00174)

    -----------------------------------------------------------------------


    Psi4 started on: Tuesday, 27 June 2017 08:06PM

    Process ID:  23343
    PSIDATADIR: /home/eric/opt/apps/python/psi4conda/share/psi4
    Memory:     500.0 MiB
    Threads:    1
    
  ==> Input File <==

--------------------------------------------------------------------------
# -*- mode: python -*-

from __future__ import print_function

memory 2 gb

molecule dimer {
He           0.000000000000     0.000000000000     0.000
--
He           0.000000000000     0.000000000000     7.000

symmetry c1
units angstrom
no_reorient
no_com
}

set {
    basis aug-cc-pvdz
}

energy('sapt2+3(ccd)dmp2')

print_variables()
--------------------------------------------------------------------------

  Memory set to   1.863 GiB by Python driver.

  //>>>>>>>>>>>>>>>>>>>>>>>>>>>>>>>>>>>//
  //              Dimer HF             //
  //<<<<<<<<<<<<<<<<<<<<<<<<<<<<<<<<<<<//


*** tstart() called on odysseus
*** at Tue Jun 27 20:06:38 2017

   => Loading Basis Set <=

    Name: AUG-CC-PVDZ
    Role: ORBITAL
    Keyword: BASIS
    atoms 1-2 entry HE         line    49 file /home/eric/opt/apps/python/psi4conda/share/psi4/basis/aug-cc-pvdz.gbs 

    There are an even number of electrons - assuming singlet.
    Specify the multiplicity in the molecule input block.


         ---------------------------------------------------------
                                   SCF
            by Justin Turney, Rob Parrish, and Andy Simmonett
                              RHF Reference
                        1 Threads,   1907 MiB Core
         ---------------------------------------------------------

  ==> Geometry <==

    Molecular point group: c1
    Full point group: C_inf_v

    Geometry (in Angstrom), charge = 0, multiplicity = 1:

       Center              X                  Y                   Z               Mass       
    ------------   -----------------  -----------------  -----------------  -----------------
          HE          0.000000000000     0.000000000000     0.000000000000     4.002603254150
          HE          0.000000000000     0.000000000000     7.000000000000     4.002603254150

  Running in c1 symmetry.

  Rotational constants: A = ************  B =      0.08595  C =      0.08595 [cm^-1]
  Rotational constants: A = ************  B =   2576.78730  C =   2576.78730 [MHz]
  Nuclear repulsion =    0.302386976337143

  Charge       = 0
  Multiplicity = 1
  Electrons    = 4
  Nalpha       = 2
  Nbeta        = 2

  ==> Algorithm <==

  SCF Algorithm Type is DF.
  DIIS enabled.
  MOM disabled.
  Fractional occupation disabled.
  Guess Type is SAD.
  Energy threshold   = 1.00e-08
  Density threshold  = 1.00e-08
  Integral threshold = 0.00e+00

  ==> Primary Basis <==

  Basis Set: AUG-CC-PVDZ
    Blend: AUG-CC-PVDZ
    Number of shells: 10
    Number of basis function: 18
    Number of Cartesian functions: 18
    Spherical Harmonics?: true
    Max angular momentum: 1

   => Loading Basis Set <=

    Name: (AUG-CC-PVDZ AUX)
    Role: JKFIT
    Keyword: DF_BASIS_SCF
    atoms 1-2 entry HE         line    38 file /home/eric/opt/apps/python/psi4conda/share/psi4/basis/def2-qzvpp-jkfit.gbs 

  ==> Pre-Iterations <==

   -------------------------------------------------------
    Irrep   Nso     Nmo     Nalpha   Nbeta   Ndocc  Nsocc
   -------------------------------------------------------
     A         18      18       0       0       0       0
   -------------------------------------------------------
    Total      18      18       2       2       2       0
   -------------------------------------------------------

  ==> Integral Setup <==

  ==> DFJK: Density-Fitted J/K Matrices <==

    J tasked:                  Yes
    K tasked:                  Yes
    wK tasked:                  No
    OpenMP threads:              1
    Integrals threads:           1
    Memory (MB):              1430
    Algorithm:                Core
    Integral Cache:           SAVE
    Schwarz Cutoff:          1E-12
    Fitting Condition:       1E-12

   => Auxiliary Basis Set <=

  Basis Set: (AUG-CC-PVDZ AUX)
    Blend: DEF2-QZVPP-JKFIT
    Number of shells: 18
    Number of basis function: 46
    Number of Cartesian functions: 50
    Spherical Harmonics?: true
    Max angular momentum: 2

  Minimum eigenvalue in the overlap matrix is 1.7498775510E-01.
  Using Symmetric Orthogonalization.

  SCF Guess: Superposition of Atomic Densities via on-the-fly atomic UHF.

  ==> Iterations <==

                           Total Energy        Delta E     RMS |[F,P]|

   @DF-RHF iter   0:    -5.71147160493247   -5.71147e+00   8.68964e-06 
   @DF-RHF iter   1:    -5.71147163140337   -2.64709e-08   2.00392e-06 
   @DF-RHF iter   2:    -5.71147163278258   -1.37921e-09   4.67785e-07 DIIS
   @DF-RHF iter   3:    -5.71147163286112   -7.85407e-11   2.81341e-09 DIIS

  ==> Post-Iterations <==

    Orbital Energies (a.u.)
    -----------------------

    Doubly Occupied:                                                      

       1A     -0.917177     2A     -0.917177  

    Virtual:                                                              

       3A      0.173738     4A      0.176897     5A      0.532071  
       6A      0.532071     7A      0.532078     8A      0.532078  
       9A      0.532078    10A      0.532078    11A      1.712142  
      12A      1.715184    13A      3.025914    14A      3.025914  
      15A      3.025915    16A      3.025915    17A      3.025915  
      18A      3.025915  

    Final Occupation by Irrep:
              A 
    DOCC [     2 ]

  Energy converged.

  @DF-RHF Final Energy:    -5.71147163286112

   => Energetics <=

    Nuclear Repulsion Energy =              0.3023869763371428
    One-Electron Energy =                  -8.3590077676881904
    Two-Electron Energy =                   2.3451491584899258
    DFT Exchange-Correlation Energy =       0.0000000000000000
    Empirical Dispersion Energy =           0.0000000000000000
    PCM Polarization Energy =               0.0000000000000000
    EFP Energy =                            0.0000000000000000
    Total Energy =                         -5.7114716328611213



Properties will be evaluated at   0.000000,   0.000000,   0.000000 Bohr

Properties computed using the SCF density matrix

  Nuclear Dipole Moment: (a.u.)
     X:     0.0000      Y:     0.0000      Z:    26.4562

  Electronic Dipole Moment: (a.u.)
     X:     0.0000      Y:     0.0000      Z:   -26.4562

  Dipole Moment: (a.u.)
     X:     0.0000      Y:     0.0000      Z:     0.0000     Total:     0.0000

  Dipole Moment: (Debye)
     X:     0.0000      Y:     0.0000      Z:     0.0000     Total:     0.0000


*** tstop() called on odysseus at Tue Jun 27 20:06:38 2017
Module time:
	user time   =       0.26 seconds =       0.00 minutes
	system time =       0.01 seconds =       0.00 minutes
	total time  =          0 seconds =       0.00 minutes
Total time:
	user time   =       0.26 seconds =       0.00 minutes
	system time =       0.01 seconds =       0.00 minutes
	total time  =          0 seconds =       0.00 minutes

*** tstart() called on odysseus
*** at Tue Jun 27 20:06:38 2017


  //>>>>>>>>>>>>>>>>>>>>>>>>>>>>>>>>>>>//
  //               DFMP2               //
  //<<<<<<<<<<<<<<<<<<<<<<<<<<<<<<<<<<<//

   => Loading Basis Set <=

    Name: (AUG-CC-PVDZ AUX)
    Role: RIFIT
    Keyword: DF_BASIS_MP2
    atoms 1-2 entry HE         line    49 file /home/eric/opt/apps/python/psi4conda/share/psi4/basis/aug-cc-pvdz-ri.gbs 

	 --------------------------------------------------------
	                          DF-MP2                         
	      2nd-Order Density-Fitted Moller-Plesset Theory     
	              RMP2 Wavefunction,   1 Threads             
	                                                         
	        Rob Parrish, Justin Turney, Andy Simmonett,      
	           Ed Hohenstein, and C. David Sherrill          
	 --------------------------------------------------------

   => Auxiliary Basis Set <=

  Basis Set: (AUG-CC-PVDZ AUX)
    Blend: AUG-CC-PVDZ-RI
    Number of shells: 14
    Number of basis function: 26
    Number of Cartesian functions: 26
    Spherical Harmonics?: true
    Max angular momentum: 1

	 --------------------------------------------------------
	                 NBF =    18, NAUX =    26
	 --------------------------------------------------------
	   CLASS    FOCC     OCC    AOCC    AVIR     VIR    FVIR
	   PAIRS       0       2       2      16      16       0
	 --------------------------------------------------------

	 Will save fitting metric to file 97.

	-----------------------------------------------------------
	 ==================> DF-MP2 Energies <==================== 
	-----------------------------------------------------------
	 Reference Energy          =      -5.7114716328611213 [Eh]
	 Singles Energy            =      -0.0000000000000000 [Eh]
	 Same-Spin Energy          =      -0.0000001054794648 [Eh]
	 Opposite-Spin Energy      =      -0.0539086036943640 [Eh]
	 Correlation Energy        =      -0.0539087091738288 [Eh]
	 Total Energy              =      -5.7653803420349501 [Eh]
	-----------------------------------------------------------
	 ================> DF-SCS-MP2 Energies <================== 
	-----------------------------------------------------------
	 SCS Same-Spin Scale       =       0.3333333333333333 [-]
	 SCS Opposite-Spin Scale   =       1.2000000000000000 [-]
	 SCS Same-Spin Energy      =      -0.0000000351598216 [Eh]
	 SCS Opposite-Spin Energy  =      -0.0646903244332368 [Eh]
	 SCS Correlation Energy    =      -0.0646903595930584 [Eh]
	 SCS Total Energy          =      -5.7761619924541794 [Eh]
	-----------------------------------------------------------


*** tstop() called on odysseus at Tue Jun 27 20:06:38 2017
Module time:
	user time   =       0.06 seconds =       0.00 minutes
	system time =       0.00 seconds =       0.00 minutes
	total time  =          0 seconds =       0.00 minutes
Total time:
	user time   =       0.32 seconds =       0.01 minutes
	system time =       0.01 seconds =       0.00 minutes
	total time  =          0 seconds =       0.00 minutes

  //>>>>>>>>>>>>>>>>>>>>>>>>>>>>>>>>>>>//
  //            Monomer A HF           //
  //<<<<<<<<<<<<<<<<<<<<<<<<<<<<<<<<<<<//


*** tstart() called on odysseus
*** at Tue Jun 27 20:06:38 2017

   => Loading Basis Set <=

    Name: AUG-CC-PVDZ
    Role: ORBITAL
    Keyword: BASIS
    atoms 1-2 entry HE         line    49 file /home/eric/opt/apps/python/psi4conda/share/psi4/basis/aug-cc-pvdz.gbs 

    There are an even number of electrons - assuming singlet.
    Specify the multiplicity in the molecule input block.


         ---------------------------------------------------------
                                   SCF
            by Justin Turney, Rob Parrish, and Andy Simmonett
                              RHF Reference
                        1 Threads,   1907 MiB Core
         ---------------------------------------------------------

  ==> Geometry <==

    Molecular point group: c1
    Full point group: C_inf_v

    Geometry (in Angstrom), charge = 0, multiplicity = 1:

       Center              X                  Y                   Z               Mass       
    ------------   -----------------  -----------------  -----------------  -----------------
          HE          0.000000000000     0.000000000000     0.000000000000     4.002603254150
          HE(Gh)      0.000000000000     0.000000000000     7.000000000000     4.002603254150

  Running in c1 symmetry.

  Rotational constants: A = ************  B =      0.08595  C =      0.08595 [cm^-1]
  Rotational constants: A = ************  B =   2576.78730  C =   2576.78730 [MHz]
  Nuclear repulsion =    0.000000000000000

  Charge       = 0
  Multiplicity = 1
  Electrons    = 2
  Nalpha       = 1
  Nbeta        = 1

  ==> Algorithm <==

  SCF Algorithm Type is DF.
  DIIS enabled.
  MOM disabled.
  Fractional occupation disabled.
  Guess Type is SAD.
  Energy threshold   = 1.00e-08
  Density threshold  = 1.00e-08
  Integral threshold = 0.00e+00

  ==> Primary Basis <==

  Basis Set: AUG-CC-PVDZ
    Blend: AUG-CC-PVDZ
    Number of shells: 10
    Number of basis function: 18
    Number of Cartesian functions: 18
    Spherical Harmonics?: true
    Max angular momentum: 1

   => Loading Basis Set <=

    Name: (AUG-CC-PVDZ AUX)
    Role: JKFIT
    Keyword: DF_BASIS_SCF
    atoms 1-2 entry HE         line    38 file /home/eric/opt/apps/python/psi4conda/share/psi4/basis/def2-qzvpp-jkfit.gbs 

  ==> Pre-Iterations <==

   -------------------------------------------------------
    Irrep   Nso     Nmo     Nalpha   Nbeta   Ndocc  Nsocc
   -------------------------------------------------------
     A         18      18       0       0       0       0
   -------------------------------------------------------
    Total      18      18       1       1       1       0
   -------------------------------------------------------

  ==> Integral Setup <==

  ==> DFJK: Density-Fitted J/K Matrices <==

    J tasked:                  Yes
    K tasked:                  Yes
    wK tasked:                  No
    OpenMP threads:              1
    Integrals threads:           1
    Memory (MB):              1430
    Algorithm:                Core
    Integral Cache:           LOAD
    Schwarz Cutoff:          1E-12
    Fitting Condition:       1E-12

   => Auxiliary Basis Set <=

  Basis Set: (AUG-CC-PVDZ AUX)
    Blend: DEF2-QZVPP-JKFIT
    Number of shells: 18
    Number of basis function: 46
    Number of Cartesian functions: 50
    Spherical Harmonics?: true
    Max angular momentum: 2

  Minimum eigenvalue in the overlap matrix is 1.7498775510E-01.
  Using Symmetric Orthogonalization.

  SCF Guess: Superposition of Atomic Densities via on-the-fly atomic UHF.

  ==> Iterations <==

                           Total Energy        Delta E     RMS |[F,P]|

   @DF-RHF iter   0:    -2.85573413890126   -2.85573e+00   3.90904e-06 
   @DF-RHF iter   1:    -2.85573414400908   -5.10782e-09   8.65552e-07 
   @DF-RHF iter   2:    -2.85573414426271   -2.53633e-10   1.99641e-07 DIIS
   @DF-RHF iter   3:    -2.85573414427695   -1.42371e-11   1.14909e-09 DIIS

  ==> Post-Iterations <==

    Orbital Energies (a.u.)
    -----------------------

    Doubly Occupied:                                                      

       1A     -0.917166  

    Virtual:                                                              

       2A      0.100088     3A      0.175582     4A      0.532180  
       5A      0.532181     6A      0.532181     7A      0.602275  
       8A      0.602281     9A      0.602281    10A      0.645023  
      11A      1.713730    12A      3.025934    13A      3.025935  
      14A      3.025935    15A      3.688360    16A      3.688360  
      17A      3.688360    18A      4.533052  

    Final Occupation by Irrep:
              A 
    DOCC [     1 ]

  Energy converged.

  @DF-RHF Final Energy:    -2.85573414427695

   => Energetics <=

    Nuclear Repulsion Energy =              0.0000000000000000
    One-Electron Energy =                  -3.8771357040650707
    Two-Electron Energy =                   1.0214015597881205
    DFT Exchange-Correlation Energy =       0.0000000000000000
    Empirical Dispersion Energy =           0.0000000000000000
    PCM Polarization Energy =               0.0000000000000000
    EFP Energy =                            0.0000000000000000
    Total Energy =                         -2.8557341442769504



Properties will be evaluated at   0.000000,   0.000000,   0.000000 Bohr

Properties computed using the SCF density matrix

  Nuclear Dipole Moment: (a.u.)
     X:     0.0000      Y:     0.0000      Z:     0.0000

  Electronic Dipole Moment: (a.u.)
     X:     0.0000      Y:    -0.0000      Z:     0.0000

  Dipole Moment: (a.u.)
     X:     0.0000      Y:    -0.0000      Z:     0.0000     Total:     0.0000

  Dipole Moment: (Debye)
     X:     0.0000      Y:    -0.0000      Z:     0.0000     Total:     0.0000


*** tstop() called on odysseus at Tue Jun 27 20:06:38 2017
Module time:
	user time   =       0.24 seconds =       0.00 minutes
	system time =       0.01 seconds =       0.00 minutes
	total time  =          0 seconds =       0.00 minutes
Total time:
	user time   =       0.56 seconds =       0.01 minutes
	system time =       0.02 seconds =       0.00 minutes
	total time  =          0 seconds =       0.00 minutes

*** tstart() called on odysseus
*** at Tue Jun 27 20:06:38 2017


  //>>>>>>>>>>>>>>>>>>>>>>>>>>>>>>>>>>>//
  //               DFMP2               //
  //<<<<<<<<<<<<<<<<<<<<<<<<<<<<<<<<<<<//

   => Loading Basis Set <=

    Name: (AUG-CC-PVDZ AUX)
    Role: RIFIT
    Keyword: DF_BASIS_MP2
    atoms 1-2 entry HE         line    49 file /home/eric/opt/apps/python/psi4conda/share/psi4/basis/aug-cc-pvdz-ri.gbs 

	 --------------------------------------------------------
	                          DF-MP2                         
	      2nd-Order Density-Fitted Moller-Plesset Theory     
	              RMP2 Wavefunction,   1 Threads             
	                                                         
	        Rob Parrish, Justin Turney, Andy Simmonett,      
	           Ed Hohenstein, and C. David Sherrill          
	 --------------------------------------------------------

   => Auxiliary Basis Set <=

  Basis Set: (AUG-CC-PVDZ AUX)
    Blend: AUG-CC-PVDZ-RI
    Number of shells: 14
    Number of basis function: 26
    Number of Cartesian functions: 26
    Spherical Harmonics?: true
    Max angular momentum: 1

	 --------------------------------------------------------
	                 NBF =    18, NAUX =    26
	 --------------------------------------------------------
	   CLASS    FOCC     OCC    AOCC    AVIR     VIR    FVIR
	   PAIRS       0       1       1      17      17       0
	 --------------------------------------------------------

	 Will attempt to load fitting metric from file 97.

	-----------------------------------------------------------
	 ==================> DF-MP2 Energies <==================== 
	-----------------------------------------------------------
	 Reference Energy          =      -2.8557341442769504 [Eh]
	 Singles Energy            =      -0.0000000000000000 [Eh]
	 Same-Spin Energy          =       0.0000000000000000 [Eh]
	 Opposite-Spin Energy      =      -0.0269537235408597 [Eh]
	 Correlation Energy        =      -0.0269537235408597 [Eh]
	 Total Energy              =      -2.8826878678178098 [Eh]
	-----------------------------------------------------------
	 ================> DF-SCS-MP2 Energies <================== 
	-----------------------------------------------------------
	 SCS Same-Spin Scale       =       0.3333333333333333 [-]
	 SCS Opposite-Spin Scale   =       1.2000000000000000 [-]
	 SCS Same-Spin Energy      =       0.0000000000000000 [Eh]
	 SCS Opposite-Spin Energy  =      -0.0323444682490316 [Eh]
	 SCS Correlation Energy    =      -0.0323444682490316 [Eh]
	 SCS Total Energy          =      -2.8880786125259821 [Eh]
	-----------------------------------------------------------


*** tstop() called on odysseus at Tue Jun 27 20:06:39 2017
Module time:
	user time   =       0.06 seconds =       0.00 minutes
	system time =       0.00 seconds =       0.00 minutes
	total time  =          1 seconds =       0.02 minutes
Total time:
	user time   =       0.62 seconds =       0.01 minutes
	system time =       0.02 seconds =       0.00 minutes
	total time  =          1 seconds =       0.02 minutes

  //>>>>>>>>>>>>>>>>>>>>>>>>>>>>>>>>>>>//
  //            Monomer B HF           //
  //<<<<<<<<<<<<<<<<<<<<<<<<<<<<<<<<<<<//


*** tstart() called on odysseus
*** at Tue Jun 27 20:06:39 2017

   => Loading Basis Set <=

    Name: AUG-CC-PVDZ
    Role: ORBITAL
    Keyword: BASIS
    atoms 1-2 entry HE         line    49 file /home/eric/opt/apps/python/psi4conda/share/psi4/basis/aug-cc-pvdz.gbs 

    There are an even number of electrons - assuming singlet.
    Specify the multiplicity in the molecule input block.


         ---------------------------------------------------------
                                   SCF
            by Justin Turney, Rob Parrish, and Andy Simmonett
                              RHF Reference
                        1 Threads,   1907 MiB Core
         ---------------------------------------------------------

  ==> Geometry <==

    Molecular point group: c1
    Full point group: C_inf_v

    Geometry (in Angstrom), charge = 0, multiplicity = 1:

       Center              X                  Y                   Z               Mass       
    ------------   -----------------  -----------------  -----------------  -----------------
          HE(Gh)      0.000000000000     0.000000000000     0.000000000000     4.002603254150
          HE          0.000000000000     0.000000000000     7.000000000000     4.002603254150

  Running in c1 symmetry.

  Rotational constants: A = ************  B =      0.08595  C =      0.08595 [cm^-1]
  Rotational constants: A = ************  B =   2576.78730  C =   2576.78730 [MHz]
  Nuclear repulsion =    0.000000000000000

  Charge       = 0
  Multiplicity = 1
  Electrons    = 2
  Nalpha       = 1
  Nbeta        = 1

  ==> Algorithm <==

  SCF Algorithm Type is DF.
  DIIS enabled.
  MOM disabled.
  Fractional occupation disabled.
  Guess Type is SAD.
  Energy threshold   = 1.00e-08
  Density threshold  = 1.00e-08
  Integral threshold = 0.00e+00

  ==> Primary Basis <==

  Basis Set: AUG-CC-PVDZ
    Blend: AUG-CC-PVDZ
    Number of shells: 10
    Number of basis function: 18
    Number of Cartesian functions: 18
    Spherical Harmonics?: true
    Max angular momentum: 1

   => Loading Basis Set <=

    Name: (AUG-CC-PVDZ AUX)
    Role: JKFIT
    Keyword: DF_BASIS_SCF
    atoms 1-2 entry HE         line    38 file /home/eric/opt/apps/python/psi4conda/share/psi4/basis/def2-qzvpp-jkfit.gbs 

  ==> Pre-Iterations <==

   -------------------------------------------------------
    Irrep   Nso     Nmo     Nalpha   Nbeta   Ndocc  Nsocc
   -------------------------------------------------------
     A         18      18       0       0       0       0
   -------------------------------------------------------
    Total      18      18       1       1       1       0
   -------------------------------------------------------

  ==> Integral Setup <==

  ==> DFJK: Density-Fitted J/K Matrices <==

    J tasked:                  Yes
    K tasked:                  Yes
    wK tasked:                  No
    OpenMP threads:              1
    Integrals threads:           1
    Memory (MB):              1430
    Algorithm:                Core
    Integral Cache:           LOAD
    Schwarz Cutoff:          1E-12
    Fitting Condition:       1E-12

   => Auxiliary Basis Set <=

  Basis Set: (AUG-CC-PVDZ AUX)
    Blend: DEF2-QZVPP-JKFIT
    Number of shells: 18
    Number of basis function: 46
    Number of Cartesian functions: 50
    Spherical Harmonics?: true
    Max angular momentum: 2

  Minimum eigenvalue in the overlap matrix is 1.7498775510E-01.
  Using Symmetric Orthogonalization.

  SCF Guess: Superposition of Atomic Densities via on-the-fly atomic UHF.

  ==> Iterations <==

                           Total Energy        Delta E     RMS |[F,P]|

   @DF-RHF iter   0:    -2.85573413890127   -2.85573e+00   3.90904e-06 
   @DF-RHF iter   1:    -2.85573414400908   -5.10781e-09   8.65552e-07 
   @DF-RHF iter   2:    -2.85573414426272   -2.53640e-10   1.99641e-07 DIIS
   @DF-RHF iter   3:    -2.85573414427696   -1.42335e-11   1.14909e-09 DIIS

  ==> Post-Iterations <==

    Orbital Energies (a.u.)
    -----------------------

    Doubly Occupied:                                                      

       1A     -0.917166  

    Virtual:                                                              

       2A      0.100088     3A      0.175582     4A      0.532180  
       5A      0.532181     6A      0.532181     7A      0.602275  
       8A      0.602281     9A      0.602281    10A      0.645023  
      11A      1.713730    12A      3.025934    13A      3.025935  
      14A      3.025935    15A      3.688360    16A      3.688360  
      17A      3.688360    18A      4.533052  

    Final Occupation by Irrep:
              A 
    DOCC [     1 ]

  Energy converged.

  @DF-RHF Final Energy:    -2.85573414427696

   => Energetics <=

    Nuclear Repulsion Energy =              0.0000000000000000
    One-Electron Energy =                  -3.8771357040650809
    Two-Electron Energy =                   1.0214015597881247
    DFT Exchange-Correlation Energy =       0.0000000000000000
    Empirical Dispersion Energy =           0.0000000000000000
    PCM Polarization Energy =               0.0000000000000000
    EFP Energy =                            0.0000000000000000
    Total Energy =                         -2.8557341442769562



Properties will be evaluated at   0.000000,   0.000000,   0.000000 Bohr

Properties computed using the SCF density matrix

  Nuclear Dipole Moment: (a.u.)
     X:     0.0000      Y:     0.0000      Z:    26.4562

  Electronic Dipole Moment: (a.u.)
     X:     0.0000      Y:     0.0000      Z:   -26.4562

  Dipole Moment: (a.u.)
     X:     0.0000      Y:     0.0000      Z:    -0.0000     Total:     0.0000

  Dipole Moment: (Debye)
     X:     0.0000      Y:     0.0000      Z:    -0.0000     Total:     0.0000


*** tstop() called on odysseus at Tue Jun 27 20:06:39 2017
Module time:
	user time   =       0.28 seconds =       0.00 minutes
	system time =       0.00 seconds =       0.00 minutes
	total time  =          0 seconds =       0.00 minutes
Total time:
	user time   =       0.90 seconds =       0.01 minutes
	system time =       0.02 seconds =       0.00 minutes
	total time  =          1 seconds =       0.02 minutes

*** tstart() called on odysseus
*** at Tue Jun 27 20:06:39 2017


  //>>>>>>>>>>>>>>>>>>>>>>>>>>>>>>>>>>>//
  //               DFMP2               //
  //<<<<<<<<<<<<<<<<<<<<<<<<<<<<<<<<<<<//

   => Loading Basis Set <=

    Name: (AUG-CC-PVDZ AUX)
    Role: RIFIT
    Keyword: DF_BASIS_MP2
    atoms 1-2 entry HE         line    49 file /home/eric/opt/apps/python/psi4conda/share/psi4/basis/aug-cc-pvdz-ri.gbs 

	 --------------------------------------------------------
	                          DF-MP2                         
	      2nd-Order Density-Fitted Moller-Plesset Theory     
	              RMP2 Wavefunction,   1 Threads             
	                                                         
	        Rob Parrish, Justin Turney, Andy Simmonett,      
	           Ed Hohenstein, and C. David Sherrill          
	 --------------------------------------------------------

   => Auxiliary Basis Set <=

  Basis Set: (AUG-CC-PVDZ AUX)
    Blend: AUG-CC-PVDZ-RI
    Number of shells: 14
    Number of basis function: 26
    Number of Cartesian functions: 26
    Spherical Harmonics?: true
    Max angular momentum: 1

	 --------------------------------------------------------
	                 NBF =    18, NAUX =    26
	 --------------------------------------------------------
	   CLASS    FOCC     OCC    AOCC    AVIR     VIR    FVIR
	   PAIRS       0       1       1      17      17       0
	 --------------------------------------------------------

	 Will attempt to load fitting metric from file 97.

	-----------------------------------------------------------
	 ==================> DF-MP2 Energies <==================== 
	-----------------------------------------------------------
	 Reference Energy          =      -2.8557341442769562 [Eh]
	 Singles Energy            =      -0.0000000000000000 [Eh]
	 Same-Spin Energy          =       0.0000000000000000 [Eh]
	 Opposite-Spin Energy      =      -0.0269537235408595 [Eh]
	 Correlation Energy        =      -0.0269537235408595 [Eh]
	 Total Energy              =      -2.8826878678178156 [Eh]
	-----------------------------------------------------------
	 ================> DF-SCS-MP2 Energies <================== 
	-----------------------------------------------------------
	 SCS Same-Spin Scale       =       0.3333333333333333 [-]
	 SCS Opposite-Spin Scale   =       1.2000000000000000 [-]
	 SCS Same-Spin Energy      =       0.0000000000000000 [Eh]
	 SCS Opposite-Spin Energy  =      -0.0323444682490314 [Eh]
	 SCS Correlation Energy    =      -0.0323444682490315 [Eh]
	 SCS Total Energy          =      -2.8880786125259874 [Eh]
	-----------------------------------------------------------


*** tstop() called on odysseus at Tue Jun 27 20:06:39 2017
Module time:
	user time   =       0.05 seconds =       0.00 minutes
	system time =       0.00 seconds =       0.00 minutes
	total time  =          0 seconds =       0.00 minutes
Total time:
	user time   =       0.95 seconds =       0.02 minutes
	system time =       0.02 seconds =       0.00 minutes
	total time  =          1 seconds =       0.02 minutes
   => Loading Basis Set <=

    Name: (AUG-CC-PVDZ AUX)
    Role: RIFIT
    Keyword: DF_BASIS_SAPT
    atoms 1-2 entry HE         line    49 file /home/eric/opt/apps/python/psi4conda/share/psi4/basis/aug-cc-pvdz-ri.gbs 


  //>>>>>>>>>>>>>>>>>>>>>>>>>>>>>>>>>>>//
  //          SAPT2+3(CCD)DMP2         //
  //<<<<<<<<<<<<<<<<<<<<<<<<<<<<<<<<<<<//


*** tstart() called on odysseus
*** at Tue Jun 27 20:06:39 2017

       SAPT2+3   
    CCD+(ST) Disp   
    Ed Hohenstein
     6 June 2009

      Orbital Information
  --------------------------
    NSO        =        18
    NMO        =        18
    NRI        =        26
    NOCC A     =         1
    NOCC B     =         1
    FOCC A     =         0
    FOCC B     =         0
    NVIR A     =        17
    NVIR B     =        17

    Estimated memory usage: 0.1 MB

    Natural Orbital Cutoff:   1.000E-06
    Disp(T3) Truncation:            Yes
    CCD (vv|vv) Truncation:         Yes
    MBPT T2 Truncation:             Yes

    Monomer A: 9 virtual orbitals dropped
    Monomer B: 9 virtual orbitals dropped

    Elst10,r            =    -0.000028635059 [Eh]
    Exch10 (S^2)        =    -0.000000000002 [Eh]
    Exch10              =    -0.000000000002 [Eh]
    Ind20,r (A<-B)      =    -0.000000000001 [Eh]
    Ind20,r (B<-A)      =    -0.000000000001 [Eh]
    Ind20,r             =    -0.000000000003 [Eh]
    Exch-Ind20,r (A<-B) =     0.000000000000 [Eh]
    Exch-Ind20,r (B<-A) =     0.000000000000 [Eh]
    Exch-Ind20,r        =     0.000000000000 [Eh]
    Disp20              =    -0.000000210910 [Eh]
    Disp20 (NO)         =    -0.000000210907 [Eh]
    Exch-Disp20         =     0.000000000000 [Eh]
    Elst12,r            =     0.000000198849 [Eh]
    Exch11              =     0.000000000000 [Eh]
    Exch12              =    -0.000000000003 [Eh]
    Ind22               =    -0.000000000027 [Eh]
    Disp21              =    -0.000000038774 [Eh]
    Disp22 (SDQ)        =    -0.000000004482 [Eh]

    (i =   1 of   1)          0 seconds

    Disp220 (T)         =    -0.000000004577 [Eh]

    (i =   1 of   1)          0 seconds

    Disp202 (T)         =    -0.000000004577 [Eh]

    Disp22 (T)          =    -0.000000009153 [Eh]

    Est. Disp220 (T)    =    -0.000000004577 [Eh]
    Est. Disp202 (T)    =    -0.000000004577 [Eh]

    Est. Disp22 (T)     =    -0.000000009154 [Eh]

==> CCD Dispersion <==

Beginning Monomer A CCD

Iter       Energy (H)          dE (H)             RMS (H)
   1      -0.02695372       0.026953724       0.000000000
   2      -0.03290463       0.005950906       0.000958618
   3      -0.03422546       0.001320829       0.000222053
   4      -0.03452223       0.000296769       0.000052102
   5      -0.03458975       0.000067521       0.000012353  DIIS
   6      -0.03460995       0.000020204       0.000002950  DIIS
   7      -0.03460993      -0.000000018       0.000000008  DIIS
   8      -0.03460996       0.000000025       0.000000004  DIIS
   9      -0.03460995      -0.000000003       0.000000001  DIIS

Beginning Monomer B CCD

Iter       Energy (H)          dE (H)             RMS (H)
   1      -0.02695372       0.026953724       0.000000000
   2      -0.03290463       0.005950906       0.000958618
   3      -0.03422546       0.001320829       0.000222053
   4      -0.03452223       0.000296769       0.000052102
   5      -0.03458975       0.000067521       0.000012353  DIIS
   6      -0.03460995       0.000020204       0.000002950  DIIS
   7      -0.03460993      -0.000000018       0.000000008  DIIS
   8      -0.03460996       0.000000025       0.000000004  DIIS
   9      -0.03460995      -0.000000003       0.000000001  DIIS

Beginning CCD Dispersion Amplitude Formation

Iter      Energy [mEh]        dE [mEh]           RMS [mEh]
   1      -0.00019885       0.000198851       0.000000000
   2      -0.00024934       0.000050489       0.007467409
   3      -0.00026229       0.000012945       0.001950729
   4      -0.00026563       0.000003342       0.000510883
   5      -0.00026649       0.000000867       0.000133920  DIIS
   6      -0.00026680       0.000000305       0.000035114  DIIS
   7      -0.00026680      -0.000000000       0.000000000  DIIS

Beginning Intramonomer A CCD Dispersion

Iter      Energy [mEh]        dE [mEh]           RMS [mEh]
   1       0.00000775      -0.000007748       0.000000000
   2       0.00000931      -0.000001567       0.000000739
   3       0.00000966      -0.000000348       0.000000172
   4       0.00000974      -0.000000079       0.000000042
   5       0.00000976      -0.000000018       0.000000011  DIIS
   6       0.00000977      -0.000000005       0.000000003  DIIS

Beginning Intramonomer B CCD Dispersion

Iter      Energy [mEh]        dE [mEh]           RMS [mEh]
   1       0.00000775      -0.000007748       0.000000000
   2       0.00000931      -0.000001567       0.000000739
   3       0.00000966      -0.000000348       0.000000172
   4       0.00000974      -0.000000079       0.000000042
   5       0.00000976      -0.000000018       0.000000011  DIIS
   6       0.00000977      -0.000000005       0.000000003  DIIS

    Disp2 (CCD)         =    -0.000000247270 [Eh]

    Disp220 (S)         =    -0.000002457267 mEh
    Disp202 (S)         =    -0.000002457267 mEh
    Disp22 (S)          =    -0.000004914534 mEh


    (i =   1 of   1)          0 seconds

    Disp220 (T)         =    -0.000000007557 [Eh]

    (i =   1 of   1)          0 seconds

    Disp202 (T)         =    -0.000000007557 [Eh]

    Disp22 (T)          =    -0.000000015114 [Eh]

    Est. Disp220 (T)    =    -0.000000007557 [Eh]
    Est. Disp202 (T)    =    -0.000000007557 [Eh]

    Est. Disp22 (T)     =    -0.000000015114 [Eh]
    Elst13,r            =     0.000000112592 [Eh]
    Disp30              =    -0.000000000000 [Eh]
    Exch-Disp30         =    -0.000000000000 [Eh]
    Ind30               =    -0.000000000000 [Eh]
    Ind30,r             =    -0.000000000000 [Eh]
    Exch-Ind30          =     0.000000000000 [Eh]
    Ind-Disp30          =     0.000000000002 [Eh]
    Exch-Ind-Disp30     =    -0.000000000000 [Eh]

    SAPT Results 
  --------------------------------------------------------------------------------------------------------
    Electrostatics                 -0.02832362 [mEh]      -0.01777334 [kcal/mol]      -0.07436366 [kJ/mol]
      Elst10,r                     -0.02863506 [mEh]      -0.01796877 [kcal/mol]      -0.07518135 [kJ/mol]
      Elst12,r                      0.00019885 [mEh]       0.00012478 [kcal/mol]       0.00052208 [kJ/mol]
      Elst13,r                      0.00011259 [mEh]       0.00007065 [kcal/mol]       0.00029561 [kJ/mol]

    Exchange                       -0.00000001 [mEh]      -0.00000000 [kcal/mol]      -0.00000001 [kJ/mol]
      Exch10                       -0.00000000 [mEh]      -0.00000000 [kcal/mol]      -0.00000001 [kJ/mol]
      Exch10(S^2)                  -0.00000000 [mEh]      -0.00000000 [kcal/mol]      -0.00000001 [kJ/mol]
      Exch11(S^2)                   0.00000000 [mEh]       0.00000000 [kcal/mol]       0.00000000 [kJ/mol]
      Exch12(S^2)                  -0.00000000 [mEh]      -0.00000000 [kcal/mol]      -0.00000001 [kJ/mol]

    Induction                       0.02404072 [mEh]       0.01508578 [kcal/mol]       0.06311892 [kJ/mol]
      Ind20,r                      -0.00000000 [mEh]      -0.00000000 [kcal/mol]      -0.00000001 [kJ/mol]
      Ind30,r                      -0.00000000 [mEh]      -0.00000000 [kcal/mol]      -0.00000000 [kJ/mol]
      Ind22                        -0.00000003 [mEh]      -0.00000002 [kcal/mol]      -0.00000007 [kJ/mol]
      Exch-Ind20,r                  0.00000000 [mEh]       0.00000000 [kcal/mol]       0.00000000 [kJ/mol]
      Exch-Ind30,r                  0.00000000 [mEh]       0.00000000 [kcal/mol]       0.00000000 [kJ/mol]
      Exch-Ind22                    0.00000000 [mEh]       0.00000000 [kcal/mol]       0.00000000 [kJ/mol]
      delta HF,r (2)                0.02529076 [mEh]       0.01587019 [kcal/mol]       0.06640088 [kJ/mol]
      delta HF,r (3)                0.02529076 [mEh]       0.01587019 [kcal/mol]       0.06640088 [kJ/mol]
      delta MP2,r (2)              -0.00125000 [mEh]      -0.00078439 [kcal/mol]      -0.00328188 [kJ/mol]
      delta MP2,r (3)              -0.00125000 [mEh]      -0.00078439 [kcal/mol]      -0.00328189 [kJ/mol]

    Dispersion                     -0.00026730 [mEh]      -0.00016773 [kcal/mol]      -0.00070179 [kJ/mol]
      Disp20                       -0.00021091 [mEh]      -0.00013235 [kcal/mol]      -0.00055374 [kJ/mol]
      Disp30                       -0.00000000 [mEh]      -0.00000000 [kcal/mol]      -0.00000000 [kJ/mol]
      Disp21                       -0.00003877 [mEh]      -0.00002433 [kcal/mol]      -0.00010180 [kJ/mol]
      Disp22 (SDQ)                 -0.00000448 [mEh]      -0.00000281 [kcal/mol]      -0.00001177 [kJ/mol]
      Disp22 (T)                   -0.00000915 [mEh]      -0.00000574 [kcal/mol]      -0.00002403 [kJ/mol]
      Est. Disp22 (T)              -0.00000915 [mEh]      -0.00000574 [kcal/mol]      -0.00002403 [kJ/mol]
      Disp2 (CCD)                  -0.00024727 [mEh]      -0.00015516 [kcal/mol]      -0.00064921 [kJ/mol]
      Disp22 (S) (CCD)             -0.00000491 [mEh]      -0.00000308 [kcal/mol]      -0.00001290 [kJ/mol]
      Disp22 (T) (CCD)             -0.00001511 [mEh]      -0.00000948 [kcal/mol]      -0.00003968 [kJ/mol]
      Est. Disp22 (T) (CCD)        -0.00001511 [mEh]      -0.00000948 [kcal/mol]      -0.00003968 [kJ/mol]
      Exch-Disp20                   0.00000000 [mEh]       0.00000000 [kcal/mol]       0.00000000 [kJ/mol]
      Exch-Disp30                  -0.00000000 [mEh]      -0.00000000 [kcal/mol]      -0.00000000 [kJ/mol]
      Ind-Disp30                    0.00000000 [mEh]       0.00000000 [kcal/mol]       0.00000001 [kJ/mol]
      Exch-Ind-Disp30              -0.00000000 [mEh]      -0.00000000 [kcal/mol]      -0.00000000 [kJ/mol]

  Total HF                         -0.00334431 [mEh]      -0.00209858 [kcal/mol]      -0.00878048 [kJ/mol]
  Total SAPT0                      -0.00355522 [mEh]      -0.00223093 [kcal/mol]      -0.00933422 [kJ/mol]
  Total SAPT2                      -0.00335640 [mEh]      -0.00210617 [kcal/mol]      -0.00881222 [kJ/mol]
  Total SAPT2+                     -0.00340881 [mEh]      -0.00213906 [kcal/mol]      -0.00894982 [kJ/mol]
  Total SAPT2+(3)                  -0.00329621 [mEh]      -0.00206841 [kcal/mol]      -0.00865421 [kJ/mol]
  Total SAPT2+3                    -0.00329621 [mEh]      -0.00206840 [kcal/mol]      -0.00865421 [kJ/mol]
  Total SAPT2+dMP2                 -0.00465881 [mEh]      -0.00292345 [kcal/mol]      -0.01223170 [kJ/mol]
  Total SAPT2+(3)dMP2              -0.00454622 [mEh]      -0.00285279 [kcal/mol]      -0.01193609 [kJ/mol]
  Total SAPT2+3dMP2                -0.00454622 [mEh]      -0.00285279 [kcal/mol]      -0.01193609 [kJ/mol]
  Total SAPT2+(CCD)                -0.00341279 [mEh]      -0.00214156 [kcal/mol]      -0.00896027 [kJ/mol]
  Total SAPT2+(3)(CCD)             -0.00330019 [mEh]      -0.00207090 [kcal/mol]      -0.00866466 [kJ/mol]
  Total SAPT2+3(CCD)               -0.00330019 [mEh]      -0.00207090 [kcal/mol]      -0.00866465 [kJ/mol]
  Total SAPT2+(CCD)dMP2            -0.00466279 [mEh]      -0.00292594 [kcal/mol]      -0.01224215 [kJ/mol]
  Total SAPT2+(3)(CCD)dMP2         -0.00455020 [mEh]      -0.00285529 [kcal/mol]      -0.01194654 [kJ/mol]
  Total SAPT2+3(CCD)dMP2           -0.00455020 [mEh]      -0.00285529 [kcal/mol]      -0.01194654 [kJ/mol]

  Special recipe for scaled SAPT0 (see Manual):
    Electrostatics sSAPT0          -0.02863506 [mEh]      -0.01796877 [kcal/mol]      -0.07518135 [kJ/mol]
    Exchange sSAPT0                -0.00000000 [mEh]      -0.00000000 [kcal/mol]      -0.00000001 [kJ/mol]
    Induction sSAPT0                0.02529075 [mEh]       0.01587019 [kcal/mol]       0.06640087 [kJ/mol]
    Dispersion sSAPT0              -0.00021091 [mEh]      -0.00013235 [kcal/mol]      -0.00055374 [kJ/mol]
  Total sSAPT0                     -0.00355522 [mEh]      -0.00223093 [kcal/mol]      -0.00933422 [kJ/mol]
  --------------------------------------------------------------------------------------------------------

*** tstop() called on odysseus at Tue Jun 27 20:06:39 2017
Module time:
	user time   =       0.07 seconds =       0.00 minutes
	system time =       0.01 seconds =       0.00 minutes
	total time  =          0 seconds =       0.00 minutes
Total time:
	user time   =       1.04 seconds =       0.02 minutes
	system time =       0.03 seconds =       0.00 minutes
	total time  =          1 seconds =       0.02 minutes


  Variable Map:
  ----------------------------------------------------------------------------
  "CURRENT CORRELATION ENERGY"           =>      -0.026953723541
  "CURRENT DIPOLE X"                     =>       0.000000000000
  "CURRENT DIPOLE Y"                     =>       0.000000000000
  "CURRENT DIPOLE Z"                     =>      -0.000002304654
  "CURRENT ENERGY"                       =>      -0.000004550197
  "CURRENT REFERENCE ENERGY"             =>      -2.855734144277
  "HF TOTAL ENERGY"                      =>      -2.855734144277
  "MP2 CORRELATION ENERGY"               =>      -0.026953723541
  "MP2 OPPOSITE-SPIN CORRELATION ENERGY" =>      -0.026953723541
  "MP2 SAME-SPIN CORRELATION ENERGY"     =>       0.000000000000
  "MP2 SINGLES ENERGY"                   =>      -0.000000000000
  "MP2 TOTAL ENERGY"                     =>      -2.882687867818
  "NUCLEAR REPULSION ENERGY"             =>       0.000000000000
  "ONE-ELECTRON ENERGY"                  =>      -3.877135704065
  "PCM POLARIZATION ENERGY"              =>       0.000000000000
  "SAPT ALPHA"                           =>       0.000000000000
  "SAPT CCD DISP"                        =>      -0.000000267298
  "SAPT CT ENERGY"                       =>      -0.000000000029
  "SAPT DISP ENERGY"                     =>      -0.000000267297
  "SAPT DISP2(CCD) ENERGY"               =>      -0.000000247270
  "SAPT DISP20 ENERGY"                   =>      -0.000000210910
  "SAPT DISP21 ENERGY"                   =>      -0.000000038774
  "SAPT DISP22(S)(CCD) ENERGY"           =>      -0.000000004915
  "SAPT DISP22(SDQ) ENERGY"              =>      -0.000000004482
  "SAPT DISP22(T) ENERGY"                =>      -0.000000009153
  "SAPT DISP22(T)(CCD) ENERGY"           =>      -0.000000015114
  "SAPT DISP30 ENERGY"                   =>      -0.000000000000
  "SAPT ELST ENERGY"                     =>      -0.000028323618
  "SAPT ELST10,R ENERGY"                 =>      -0.000028635059
  "SAPT ELST12,R ENERGY"                 =>       0.000000198849
  "SAPT ELST13,R ENERGY"                 =>       0.000000112592
  "SAPT ENERGY"                          =>       0.000000000000
  "SAPT EST.DISP22(T) ENERGY"            =>      -0.000000009154
  "SAPT EST.DISP22(T)(CCD) ENERGY"       =>      -0.000000015114
  "SAPT EXCH ENERGY"                     =>      -0.000000000005
  "SAPT EXCH-DISP20 ENERGY"              =>       0.000000000000
  "SAPT EXCH-DISP30 ENERGY"              =>      -0.000000000000
  "SAPT EXCH-IND-DISP30 ENERGY"          =>      -0.000000000000
  "SAPT EXCH-IND20,R ENERGY"             =>       0.000000000000
  "SAPT EXCH-IND22 ENERGY"               =>       0.000000000001
  "SAPT EXCH-IND30,R ENERGY"             =>       0.000000000000
  "SAPT EXCH10 ENERGY"                   =>      -0.000000000002
  "SAPT EXCH10(S^2) ENERGY"              =>      -0.000000000002
  "SAPT EXCH11(S^2) ENERGY"              =>       0.000000000000
  "SAPT EXCH12(S^2) ENERGY"              =>      -0.000000000003
  "SAPT EXCHSCAL"                        =>       1.000000000000
  "SAPT EXCHSCAL1"                       =>       1.000000000000
  "SAPT EXCHSCAL3"                       =>       1.000000000000
  "SAPT HF TOTAL ENERGY"                 =>      -0.000003344307
  "SAPT HF(2) ALPHA=0.0 ENERGY"          =>       0.000025290756
  "SAPT HF(2) ENERGY"                    =>       0.000025290756
  "SAPT HF(3) ENERGY"                    =>       0.000025290756
  "SAPT IND ENERGY"                      =>       0.000024040723
  "SAPT IND-DISP30 ENERGY"               =>       0.000000000002
  "SAPT IND20,R ENERGY"                  =>      -0.000000000003
  "SAPT IND22 ENERGY"                    =>      -0.000000000027
  "SAPT IND30,R ENERGY"                  =>      -0.000000000000
  "SAPT MP2 CORRELATION ENERGY"          =>      -0.000001262092
  "SAPT MP2(2) ENERGY"                   =>      -0.000001250002
  "SAPT MP2(3) ENERGY"                   =>      -0.000001250005
  "SAPT MP4 DISP"                        =>      -0.000000263318
  "SAPT TOTAL ENERGY"                    =>      -0.000004550197
  "SAPT0 DISP ENERGY"                    =>      -0.000000210909
  "SAPT0 ELST ENERGY"                    =>      -0.000028635059
  "SAPT0 EXCH ENERGY"                    =>      -0.000000000002
  "SAPT0 IND ENERGY"                     =>       0.000025290754
  "SAPT0 TOTAL ENERGY"                   =>      -0.000003555216
  "SAPT2 DISP ENERGY"                    =>      -0.000000210909
  "SAPT2 ELST ENERGY"                    =>      -0.000028436210
  "SAPT2 EXCH ENERGY"                    =>      -0.000000000005
  "SAPT2 IND ENERGY"                     =>       0.000025290728
  "SAPT2 TOTAL ENERGY"                   =>      -0.000003356397
  "SAPT2+ DISP ENERGY"                   =>      -0.000000263318
  "SAPT2+ ELST ENERGY"                   =>      -0.000028436210
  "SAPT2+ EXCH ENERGY"                   =>      -0.000000000005
  "SAPT2+ IND ENERGY"                    =>       0.000025290728
  "SAPT2+ TOTAL ENERGY"                  =>      -0.000003408806
  "SAPT2+(3) DISP ENERGY"                =>      -0.000000263319
  "SAPT2+(3) ELST ENERGY"                =>      -0.000028323618
  "SAPT2+(3) EXCH ENERGY"                =>      -0.000000000005
  "SAPT2+(3) IND ENERGY"                 =>       0.000025290728
  "SAPT2+(3) TOTAL ENERGY"               =>      -0.000003296214
  "SAPT2+(3)(CCD) DISP ENERGY"           =>      -0.000000267299
  "SAPT2+(3)(CCD) ELST ENERGY"           =>      -0.000028323618
  "SAPT2+(3)(CCD) EXCH ENERGY"           =>      -0.000000000005
  "SAPT2+(3)(CCD) IND ENERGY"            =>       0.000025290728
  "SAPT2+(3)(CCD) TOTAL ENERGY"          =>      -0.000003300194
  "SAPT2+(3)(CCD)DMP2 DISP ENERGY"       =>      -0.000000267299
  "SAPT2+(3)(CCD)DMP2 ELST ENERGY"       =>      -0.000028323618
  "SAPT2+(3)(CCD)DMP2 EXCH ENERGY"       =>      -0.000000000005
  "SAPT2+(3)(CCD)DMP2 IND ENERGY"        =>       0.000024040725
  "SAPT2+(3)(CCD)DMP2 TOTAL ENERGY"      =>      -0.000004550197
  "SAPT2+(3)DMP2 DISP ENERGY"            =>      -0.000000263319
  "SAPT2+(3)DMP2 ELST ENERGY"            =>      -0.000028323618
  "SAPT2+(3)DMP2 EXCH ENERGY"            =>      -0.000000000005
  "SAPT2+(3)DMP2 IND ENERGY"             =>       0.000024040725
  "SAPT2+(3)DMP2 TOTAL ENERGY"           =>      -0.000004546217
  "SAPT2+(CCD) DISP ENERGY"              =>      -0.000000267298
  "SAPT2+(CCD) ELST ENERGY"              =>      -0.000028436210
  "SAPT2+(CCD) EXCH ENERGY"              =>      -0.000000000005
  "SAPT2+(CCD) IND ENERGY"               =>       0.000025290728
  "SAPT2+(CCD) TOTAL ENERGY"             =>      -0.000003412786
  "SAPT2+(CCD)DMP2 DISP ENERGY"          =>      -0.000000267298
  "SAPT2+(CCD)DMP2 ELST ENERGY"          =>      -0.000028436210
  "SAPT2+(CCD)DMP2 EXCH ENERGY"          =>      -0.000000000005
  "SAPT2+(CCD)DMP2 IND ENERGY"           =>       0.000024040725
  "SAPT2+(CCD)DMP2 TOTAL ENERGY"         =>      -0.000004662789
  "SAPT2+3 DISP ENERGY"                  =>      -0.000000263317
  "SAPT2+3 ELST ENERGY"                  =>      -0.000028323618
  "SAPT2+3 EXCH ENERGY"                  =>      -0.000000000005
  "SAPT2+3 IND ENERGY"                   =>       0.000025290728
  "SAPT2+3 TOTAL ENERGY"                 =>      -0.000003296212
  "SAPT2+3(CCD) DISP ENERGY"             =>      -0.000000267297
  "SAPT2+3(CCD) ELST ENERGY"             =>      -0.000028323618
  "SAPT2+3(CCD) EXCH ENERGY"             =>      -0.000000000005
  "SAPT2+3(CCD) IND ENERGY"              =>       0.000025290728
  "SAPT2+3(CCD) TOTAL ENERGY"            =>      -0.000003300192
  "SAPT2+3(CCD)DMP2 DISP ENERGY"         =>      -0.000000267297
  "SAPT2+3(CCD)DMP2 ELST ENERGY"         =>      -0.000028323618
  "SAPT2+3(CCD)DMP2 EXCH ENERGY"         =>      -0.000000000005
  "SAPT2+3(CCD)DMP2 IND ENERGY"          =>       0.000024040723
  "SAPT2+3(CCD)DMP2 TOTAL ENERGY"        =>      -0.000004550197
  "SAPT2+3DMP2 DISP ENERGY"              =>      -0.000000263317
  "SAPT2+3DMP2 ELST ENERGY"              =>      -0.000028323618
  "SAPT2+3DMP2 EXCH ENERGY"              =>      -0.000000000005
  "SAPT2+3DMP2 IND ENERGY"               =>       0.000024040723
  "SAPT2+3DMP2 TOTAL ENERGY"             =>      -0.000004546217
  "SAPT2+DMP2 DISP ENERGY"               =>      -0.000000263318
  "SAPT2+DMP2 ELST ENERGY"               =>      -0.000028436210
  "SAPT2+DMP2 EXCH ENERGY"               =>      -0.000000000005
  "SAPT2+DMP2 IND ENERGY"                =>       0.000024040725
  "SAPT2+DMP2 TOTAL ENERGY"              =>      -0.000004658808
  "SCF DIPOLE X"                         =>       0.000000000000
  "SCF DIPOLE Y"                         =>       0.000000000000
  "SCF DIPOLE Z"                         =>      -0.000002304654
  "SCF ITERATION ENERGY"                 =>      -2.855734144277
  "SCF ITERATIONS"                       =>       3.000000000000
  "SCF TOTAL ENERGY"                     =>      -2.855734144277
  "SCS-MP2 CORRELATION ENERGY"           =>      -0.032344468249
  "SCS-MP2 TOTAL ENERGY"                 =>      -2.888078612526
  "SCS-SAPT0 ELST ENERGY"                =>      -0.000028635059
  "SCS-SAPT0 EXCH ENERGY"                =>      -0.000000000002
  "SCS-SAPT0 IND ENERGY"                 =>       0.000025290754
  "SSAPT0 DISP ENERGY"                   =>      -0.000000210909
  "SSAPT0 ELST ENERGY"                   =>      -0.000028635059
  "SSAPT0 EXCH ENERGY"                   =>      -0.000000000002
  "SSAPT0 IND ENERGY"                    =>       0.000025290754
  "SSAPT0 TOTAL ENERGY"                  =>      -0.000003555216
  "TWO-ELECTRON ENERGY"                  =>       1.021401559788



*** Psi4 exiting successfully. Buy a developer a beer!
