
    -----------------------------------------------------------------------
          Psi4: An Open-Source Ab Initio Electronic Structure Package
                               Psi4 1.1 release

                         Git: Rev {HEAD} add49b9 


    R. M. Parrish, L. A. Burns, D. G. A. Smith, A. C. Simmonett,
    A. E. DePrince III, E. G. Hohenstein, U. Bozkaya, A. Yu. Sokolov,
    R. Di Remigio, R. M. Richard, J. F. Gonthier, A. M. James,
    H. R. McAlexander, A. Kumar, M. Saitow, X. Wang, B. P. Pritchard,
    P. Verma, H. F. Schaefer III, K. Patkowski, R. A. King, E. F. Valeev,
    F. A. Evangelista, J. M. Turney, T. D. Crawford, and C. D. Sherrill,
    J. Chem. Theory Comput. in press (2017).
    (doi: 10.1021/acs.jctc.7b00174)

    -----------------------------------------------------------------------


    Psi4 started on: Tuesday, 27 June 2017 08:28PM

    Process ID:  24138
    PSIDATADIR: /home/eric/opt/apps/python/psi4conda/share/psi4
    Memory:     500.0 MiB
    Threads:    1
    
  ==> Input File <==

--------------------------------------------------------------------------
# -*- mode: python -*-

from __future__ import print_function

memory 2 gb

molecule dimer {
He           0.000000000000     0.000000000000     0.000
--
He           0.000000000000     0.000000000000     3.000

symmetry c1
units angstrom
no_reorient
no_com
}

set {
    basis aug-cc-pvdz
}

energy('sapt2+3(ccd)dmp2')

print_variables()
--------------------------------------------------------------------------

  Memory set to   1.863 GiB by Python driver.

  //>>>>>>>>>>>>>>>>>>>>>>>>>>>>>>>>>>>//
  //              Dimer HF             //
  //<<<<<<<<<<<<<<<<<<<<<<<<<<<<<<<<<<<//


*** tstart() called on odysseus
*** at Tue Jun 27 20:28:26 2017

   => Loading Basis Set <=

    Name: AUG-CC-PVDZ
    Role: ORBITAL
    Keyword: BASIS
    atoms 1-2 entry HE         line    49 file /home/eric/opt/apps/python/psi4conda/share/psi4/basis/aug-cc-pvdz.gbs 

    There are an even number of electrons - assuming singlet.
    Specify the multiplicity in the molecule input block.


         ---------------------------------------------------------
                                   SCF
            by Justin Turney, Rob Parrish, and Andy Simmonett
                              RHF Reference
                        1 Threads,   1907 MiB Core
         ---------------------------------------------------------

  ==> Geometry <==

    Molecular point group: c1
    Full point group: C_inf_v

    Geometry (in Angstrom), charge = 0, multiplicity = 1:

       Center              X                  Y                   Z               Mass       
    ------------   -----------------  -----------------  -----------------  -----------------
          HE          0.000000000000     0.000000000000     0.000000000000     4.002603254150
          HE          0.000000000000     0.000000000000     3.000000000000     4.002603254150

  Running in c1 symmetry.

  Rotational constants: A = ************  B =      0.46796  C =      0.46796 [cm^-1]
  Rotational constants: A = ************  B =  14029.17532  C =  14029.17532 [MHz]
  Nuclear repulsion =    0.705569611453333

  Charge       = 0
  Multiplicity = 1
  Electrons    = 4
  Nalpha       = 2
  Nbeta        = 2

  ==> Algorithm <==

  SCF Algorithm Type is DF.
  DIIS enabled.
  MOM disabled.
  Fractional occupation disabled.
  Guess Type is SAD.
  Energy threshold   = 1.00e-08
  Density threshold  = 1.00e-08
  Integral threshold = 0.00e+00

  ==> Primary Basis <==

  Basis Set: AUG-CC-PVDZ
    Blend: AUG-CC-PVDZ
    Number of shells: 10
    Number of basis function: 18
    Number of Cartesian functions: 18
    Spherical Harmonics?: true
    Max angular momentum: 1

   => Loading Basis Set <=

    Name: (AUG-CC-PVDZ AUX)
    Role: JKFIT
    Keyword: DF_BASIS_SCF
    atoms 1-2 entry HE         line    38 file /home/eric/opt/apps/python/psi4conda/share/psi4/basis/def2-qzvpp-jkfit.gbs 

  ==> Pre-Iterations <==

   -------------------------------------------------------
    Irrep   Nso     Nmo     Nalpha   Nbeta   Ndocc  Nsocc
   -------------------------------------------------------
     A         18      18       0       0       0       0
   -------------------------------------------------------
    Total      18      18       2       2       2       0
   -------------------------------------------------------

  ==> Integral Setup <==

  ==> DFJK: Density-Fitted J/K Matrices <==

    J tasked:                  Yes
    K tasked:                  Yes
    wK tasked:                  No
    OpenMP threads:              1
    Integrals threads:           1
    Memory (MB):              1430
    Algorithm:                Core
    Integral Cache:           SAVE
    Schwarz Cutoff:          1E-12
    Fitting Condition:       1E-12

   => Auxiliary Basis Set <=

  Basis Set: (AUG-CC-PVDZ AUX)
    Blend: DEF2-QZVPP-JKFIT
    Number of shells: 18
    Number of basis function: 46
    Number of Cartesian functions: 50
    Spherical Harmonics?: true
    Max angular momentum: 2

  Minimum eigenvalue in the overlap matrix is 1.3868018832E-01.
  Using Symmetric Orthogonalization.

  SCF Guess: Superposition of Atomic Densities via on-the-fly atomic UHF.

  ==> Iterations <==

                           Total Energy        Delta E     RMS |[F,P]|

   @DF-RHF iter   0:    -5.71150583015913   -5.71151e+00   2.59381e-04 
   @DF-RHF iter   1:    -5.71145914473124    4.66854e-05   2.49866e-05 
   @DF-RHF iter   2:    -5.71145929528567   -1.50554e-07   3.53234e-06 DIIS
   @DF-RHF iter   3:    -5.71145929868005   -3.39438e-09   1.64367e-07 DIIS
   @DF-RHF iter   4:    -5.71145929868778   -7.72449e-12   2.12480e-08 DIIS
   @DF-RHF iter   5:    -5.71145929868791   -1.32339e-13   6.44154e-10 DIIS

  ==> Post-Iterations <==

    Orbital Energies (a.u.)
    -----------------------

    Doubly Occupied:                                                      

       1A     -0.919206     2A     -0.915043  

    Virtual:                                                              

       3A      0.164912     4A      0.209625     5A      0.464753  
       6A      0.514796     7A      0.514796     8A      0.549933  
       9A      0.549933    10A      0.673545    11A      1.725809  
      12A      1.734580    13A      2.975413    14A      3.013308  
      15A      3.013308    16A      3.039433    17A      3.039433  
      18A      3.141141  

    Final Occupation by Irrep:
              A 
    DOCC [     2 ]

  Energy converged.

  @DF-RHF Final Energy:    -5.71145929868791

   => Energetics <=

    Nuclear Repulsion Energy =              0.7055696114533333
    One-Electron Energy =                  -9.1655608175490322
    Two-Electron Energy =                   2.7485319074077879
    DFT Exchange-Correlation Energy =       0.0000000000000000
    Empirical Dispersion Energy =           0.0000000000000000
    PCM Polarization Energy =               0.0000000000000000
    EFP Energy =                            0.0000000000000000
    Total Energy =                         -5.7114592986879114



Properties will be evaluated at   0.000000,   0.000000,   0.000000 Bohr

Properties computed using the SCF density matrix

  Nuclear Dipole Moment: (a.u.)
     X:     0.0000      Y:     0.0000      Z:    11.3384

  Electronic Dipole Moment: (a.u.)
     X:    -0.0000      Y:    -0.0000      Z:   -11.3384

  Dipole Moment: (a.u.)
     X:    -0.0000      Y:    -0.0000      Z:     0.0000     Total:     0.0000

  Dipole Moment: (Debye)
     X:    -0.0000      Y:    -0.0000      Z:     0.0000     Total:     0.0000


*** tstop() called on odysseus at Tue Jun 27 20:28:26 2017
Module time:
	user time   =       0.26 seconds =       0.00 minutes
	system time =       0.00 seconds =       0.00 minutes
	total time  =          0 seconds =       0.00 minutes
Total time:
	user time   =       0.26 seconds =       0.00 minutes
	system time =       0.00 seconds =       0.00 minutes
	total time  =          0 seconds =       0.00 minutes

*** tstart() called on odysseus
*** at Tue Jun 27 20:28:26 2017


  //>>>>>>>>>>>>>>>>>>>>>>>>>>>>>>>>>>>//
  //               DFMP2               //
  //<<<<<<<<<<<<<<<<<<<<<<<<<<<<<<<<<<<//

   => Loading Basis Set <=

    Name: (AUG-CC-PVDZ AUX)
    Role: RIFIT
    Keyword: DF_BASIS_MP2
    atoms 1-2 entry HE         line    49 file /home/eric/opt/apps/python/psi4conda/share/psi4/basis/aug-cc-pvdz-ri.gbs 

	 --------------------------------------------------------
	                          DF-MP2                         
	      2nd-Order Density-Fitted Moller-Plesset Theory     
	              RMP2 Wavefunction,   1 Threads             
	                                                         
	        Rob Parrish, Justin Turney, Andy Simmonett,      
	           Ed Hohenstein, and C. David Sherrill          
	 --------------------------------------------------------

   => Auxiliary Basis Set <=

  Basis Set: (AUG-CC-PVDZ AUX)
    Blend: AUG-CC-PVDZ-RI
    Number of shells: 14
    Number of basis function: 26
    Number of Cartesian functions: 26
    Spherical Harmonics?: true
    Max angular momentum: 1

	 --------------------------------------------------------
	                 NBF =    18, NAUX =    26
	 --------------------------------------------------------
	   CLASS    FOCC     OCC    AOCC    AVIR     VIR    FVIR
	   PAIRS       0       2       2      16      16       0
	 --------------------------------------------------------

	 Will save fitting metric to file 97.

	-----------------------------------------------------------
	 ==================> DF-MP2 Energies <==================== 
	-----------------------------------------------------------
	 Reference Energy          =      -5.7114592986879114 [Eh]
	 Singles Energy            =      -0.0000000000000000 [Eh]
	 Same-Spin Energy          =      -0.0000174536893671 [Eh]
	 Opposite-Spin Energy      =      -0.0539389355594393 [Eh]
	 Correlation Energy        =      -0.0539563892488064 [Eh]
	 Total Energy              =      -5.7654156879367173 [Eh]
	-----------------------------------------------------------
	 ================> DF-SCS-MP2 Energies <================== 
	-----------------------------------------------------------
	 SCS Same-Spin Scale       =       0.3333333333333333 [-]
	 SCS Opposite-Spin Scale   =       1.2000000000000000 [-]
	 SCS Same-Spin Energy      =      -0.0000058178964557 [Eh]
	 SCS Opposite-Spin Energy  =      -0.0647267226713271 [Eh]
	 SCS Correlation Energy    =      -0.0647325405677828 [Eh]
	 SCS Total Energy          =      -5.7761918392556941 [Eh]
	-----------------------------------------------------------


*** tstop() called on odysseus at Tue Jun 27 20:28:26 2017
Module time:
	user time   =       0.07 seconds =       0.00 minutes
	system time =       0.00 seconds =       0.00 minutes
	total time  =          0 seconds =       0.00 minutes
Total time:
	user time   =       0.33 seconds =       0.01 minutes
	system time =       0.00 seconds =       0.00 minutes
	total time  =          0 seconds =       0.00 minutes

  //>>>>>>>>>>>>>>>>>>>>>>>>>>>>>>>>>>>//
  //            Monomer A HF           //
  //<<<<<<<<<<<<<<<<<<<<<<<<<<<<<<<<<<<//


*** tstart() called on odysseus
*** at Tue Jun 27 20:28:26 2017

   => Loading Basis Set <=

    Name: AUG-CC-PVDZ
    Role: ORBITAL
    Keyword: BASIS
    atoms 1-2 entry HE         line    49 file /home/eric/opt/apps/python/psi4conda/share/psi4/basis/aug-cc-pvdz.gbs 

    There are an even number of electrons - assuming singlet.
    Specify the multiplicity in the molecule input block.


         ---------------------------------------------------------
                                   SCF
            by Justin Turney, Rob Parrish, and Andy Simmonett
                              RHF Reference
                        1 Threads,   1907 MiB Core
         ---------------------------------------------------------

  ==> Geometry <==

    Molecular point group: c1
    Full point group: C_inf_v

    Geometry (in Angstrom), charge = 0, multiplicity = 1:

       Center              X                  Y                   Z               Mass       
    ------------   -----------------  -----------------  -----------------  -----------------
          HE          0.000000000000     0.000000000000     0.000000000000     4.002603254150
          HE(Gh)      0.000000000000     0.000000000000     3.000000000000     4.002603254150

  Running in c1 symmetry.

  Rotational constants: A = ************  B =      0.46796  C =      0.46796 [cm^-1]
  Rotational constants: A = ************  B =  14029.17532  C =  14029.17532 [MHz]
  Nuclear repulsion =    0.000000000000000

  Charge       = 0
  Multiplicity = 1
  Electrons    = 2
  Nalpha       = 1
  Nbeta        = 1

  ==> Algorithm <==

  SCF Algorithm Type is DF.
  DIIS enabled.
  MOM disabled.
  Fractional occupation disabled.
  Guess Type is SAD.
  Energy threshold   = 1.00e-08
  Density threshold  = 1.00e-08
  Integral threshold = 0.00e+00

  ==> Primary Basis <==

  Basis Set: AUG-CC-PVDZ
    Blend: AUG-CC-PVDZ
    Number of shells: 10
    Number of basis function: 18
    Number of Cartesian functions: 18
    Spherical Harmonics?: true
    Max angular momentum: 1

   => Loading Basis Set <=

    Name: (AUG-CC-PVDZ AUX)
    Role: JKFIT
    Keyword: DF_BASIS_SCF
    atoms 1-2 entry HE         line    38 file /home/eric/opt/apps/python/psi4conda/share/psi4/basis/def2-qzvpp-jkfit.gbs 

  ==> Pre-Iterations <==

   -------------------------------------------------------
    Irrep   Nso     Nmo     Nalpha   Nbeta   Ndocc  Nsocc
   -------------------------------------------------------
     A         18      18       0       0       0       0
   -------------------------------------------------------
    Total      18      18       1       1       1       0
   -------------------------------------------------------

  ==> Integral Setup <==

  ==> DFJK: Density-Fitted J/K Matrices <==

    J tasked:                  Yes
    K tasked:                  Yes
    wK tasked:                  No
    OpenMP threads:              1
    Integrals threads:           1
    Memory (MB):              1430
    Algorithm:                Core
    Integral Cache:           LOAD
    Schwarz Cutoff:          1E-12
    Fitting Condition:       1E-12

   => Auxiliary Basis Set <=

  Basis Set: (AUG-CC-PVDZ AUX)
    Blend: DEF2-QZVPP-JKFIT
    Number of shells: 18
    Number of basis function: 46
    Number of Cartesian functions: 50
    Spherical Harmonics?: true
    Max angular momentum: 2

  Minimum eigenvalue in the overlap matrix is 1.3868018832E-01.
  Using Symmetric Orthogonalization.

  SCF Guess: Superposition of Atomic Densities via on-the-fly atomic UHF.

  ==> Iterations <==

                           Total Energy        Delta E     RMS |[F,P]|

   @DF-RHF iter   0:    -2.85573354204322   -2.85573e+00   1.77876e-04 
   @DF-RHF iter   1:    -2.85574062117380   -7.07913e-06   2.38288e-05 
   @DF-RHF iter   2:    -2.85574076972738   -1.48554e-07   3.66148e-06 DIIS
   @DF-RHF iter   3:    -2.85574077370694   -3.97955e-09   2.00114e-07 DIIS
   @DF-RHF iter   4:    -2.85574077371925   -1.23110e-11   1.82369e-08 DIIS
   @DF-RHF iter   5:    -2.85574077371934   -9.68114e-14   4.83716e-10 DIIS

  ==> Post-Iterations <==

    Orbital Energies (a.u.)
    -----------------------

    Doubly Occupied:                                                      

       1A     -0.917143  

    Virtual:                                                              

       2A      0.101465     3A      0.195830     4A      0.490490  
       5A      0.528058     6A      0.528058     7A      0.607046  
       8A      0.607046     9A      0.644188    10A      0.732916  
      11A      1.730366    12A      3.026134    13A      3.026134  
      14A      3.048721    15A      3.688987    16A      3.688987  
      17A      3.727995    18A      4.550901  

    Final Occupation by Irrep:
              A 
    DOCC [     1 ]

  Energy converged.

  @DF-RHF Final Energy:    -2.85574077371934

   => Energetics <=

    Nuclear Repulsion Energy =              0.0000000000000000
    One-Electron Energy =                  -3.8771945830359664
    Two-Electron Energy =                   1.0214538093166228
    DFT Exchange-Correlation Energy =       0.0000000000000000
    Empirical Dispersion Energy =           0.0000000000000000
    PCM Polarization Energy =               0.0000000000000000
    EFP Energy =                            0.0000000000000000
    Total Energy =                         -2.8557407737193437



Properties will be evaluated at   0.000000,   0.000000,   0.000000 Bohr

Properties computed using the SCF density matrix

  Nuclear Dipole Moment: (a.u.)
     X:     0.0000      Y:     0.0000      Z:     0.0000

  Electronic Dipole Moment: (a.u.)
     X:     0.0000      Y:    -0.0000      Z:    -0.0003

  Dipole Moment: (a.u.)
     X:     0.0000      Y:    -0.0000      Z:    -0.0003     Total:     0.0003

  Dipole Moment: (Debye)
     X:     0.0000      Y:    -0.0000      Z:    -0.0008     Total:     0.0008


*** tstop() called on odysseus at Tue Jun 27 20:28:27 2017
Module time:
	user time   =       0.25 seconds =       0.00 minutes
	system time =       0.01 seconds =       0.00 minutes
	total time  =          1 seconds =       0.02 minutes
Total time:
	user time   =       0.58 seconds =       0.01 minutes
	system time =       0.01 seconds =       0.00 minutes
	total time  =          1 seconds =       0.02 minutes

*** tstart() called on odysseus
*** at Tue Jun 27 20:28:27 2017


  //>>>>>>>>>>>>>>>>>>>>>>>>>>>>>>>>>>>//
  //               DFMP2               //
  //<<<<<<<<<<<<<<<<<<<<<<<<<<<<<<<<<<<//

   => Loading Basis Set <=

    Name: (AUG-CC-PVDZ AUX)
    Role: RIFIT
    Keyword: DF_BASIS_MP2
    atoms 1-2 entry HE         line    49 file /home/eric/opt/apps/python/psi4conda/share/psi4/basis/aug-cc-pvdz-ri.gbs 

	 --------------------------------------------------------
	                          DF-MP2                         
	      2nd-Order Density-Fitted Moller-Plesset Theory     
	              RMP2 Wavefunction,   1 Threads             
	                                                         
	        Rob Parrish, Justin Turney, Andy Simmonett,      
	           Ed Hohenstein, and C. David Sherrill          
	 --------------------------------------------------------

   => Auxiliary Basis Set <=

  Basis Set: (AUG-CC-PVDZ AUX)
    Blend: AUG-CC-PVDZ-RI
    Number of shells: 14
    Number of basis function: 26
    Number of Cartesian functions: 26
    Spherical Harmonics?: true
    Max angular momentum: 1

	 --------------------------------------------------------
	                 NBF =    18, NAUX =    26
	 --------------------------------------------------------
	   CLASS    FOCC     OCC    AOCC    AVIR     VIR    FVIR
	   PAIRS       0       1       1      17      17       0
	 --------------------------------------------------------

	 Will attempt to load fitting metric from file 97.

	-----------------------------------------------------------
	 ==================> DF-MP2 Energies <==================== 
	-----------------------------------------------------------
	 Reference Energy          =      -2.8557407737193437 [Eh]
	 Singles Energy            =      -0.0000000000000000 [Eh]
	 Same-Spin Energy          =       0.0000000000000000 [Eh]
	 Opposite-Spin Energy      =      -0.0269608599328314 [Eh]
	 Correlation Energy        =      -0.0269608599328314 [Eh]
	 Total Energy              =      -2.8827016336521751 [Eh]
	-----------------------------------------------------------
	 ================> DF-SCS-MP2 Energies <================== 
	-----------------------------------------------------------
	 SCS Same-Spin Scale       =       0.3333333333333333 [-]
	 SCS Opposite-Spin Scale   =       1.2000000000000000 [-]
	 SCS Same-Spin Energy      =       0.0000000000000000 [Eh]
	 SCS Opposite-Spin Energy  =      -0.0323530319193977 [Eh]
	 SCS Correlation Energy    =      -0.0323530319193977 [Eh]
	 SCS Total Energy          =      -2.8880938056387415 [Eh]
	-----------------------------------------------------------


*** tstop() called on odysseus at Tue Jun 27 20:28:27 2017
Module time:
	user time   =       0.05 seconds =       0.00 minutes
	system time =       0.00 seconds =       0.00 minutes
	total time  =          0 seconds =       0.00 minutes
Total time:
	user time   =       0.63 seconds =       0.01 minutes
	system time =       0.01 seconds =       0.00 minutes
	total time  =          1 seconds =       0.02 minutes

  //>>>>>>>>>>>>>>>>>>>>>>>>>>>>>>>>>>>//
  //            Monomer B HF           //
  //<<<<<<<<<<<<<<<<<<<<<<<<<<<<<<<<<<<//


*** tstart() called on odysseus
*** at Tue Jun 27 20:28:27 2017

   => Loading Basis Set <=

    Name: AUG-CC-PVDZ
    Role: ORBITAL
    Keyword: BASIS
    atoms 1-2 entry HE         line    49 file /home/eric/opt/apps/python/psi4conda/share/psi4/basis/aug-cc-pvdz.gbs 

    There are an even number of electrons - assuming singlet.
    Specify the multiplicity in the molecule input block.


         ---------------------------------------------------------
                                   SCF
            by Justin Turney, Rob Parrish, and Andy Simmonett
                              RHF Reference
                        1 Threads,   1907 MiB Core
         ---------------------------------------------------------

  ==> Geometry <==

    Molecular point group: c1
    Full point group: C_inf_v

    Geometry (in Angstrom), charge = 0, multiplicity = 1:

       Center              X                  Y                   Z               Mass       
    ------------   -----------------  -----------------  -----------------  -----------------
          HE(Gh)      0.000000000000     0.000000000000     0.000000000000     4.002603254150
          HE          0.000000000000     0.000000000000     3.000000000000     4.002603254150

  Running in c1 symmetry.

  Rotational constants: A = ************  B =      0.46796  C =      0.46796 [cm^-1]
  Rotational constants: A = ************  B =  14029.17532  C =  14029.17532 [MHz]
  Nuclear repulsion =    0.000000000000000

  Charge       = 0
  Multiplicity = 1
  Electrons    = 2
  Nalpha       = 1
  Nbeta        = 1

  ==> Algorithm <==

  SCF Algorithm Type is DF.
  DIIS enabled.
  MOM disabled.
  Fractional occupation disabled.
  Guess Type is SAD.
  Energy threshold   = 1.00e-08
  Density threshold  = 1.00e-08
  Integral threshold = 0.00e+00

  ==> Primary Basis <==

  Basis Set: AUG-CC-PVDZ
    Blend: AUG-CC-PVDZ
    Number of shells: 10
    Number of basis function: 18
    Number of Cartesian functions: 18
    Spherical Harmonics?: true
    Max angular momentum: 1

   => Loading Basis Set <=

    Name: (AUG-CC-PVDZ AUX)
    Role: JKFIT
    Keyword: DF_BASIS_SCF
    atoms 1-2 entry HE         line    38 file /home/eric/opt/apps/python/psi4conda/share/psi4/basis/def2-qzvpp-jkfit.gbs 

  ==> Pre-Iterations <==

   -------------------------------------------------------
    Irrep   Nso     Nmo     Nalpha   Nbeta   Ndocc  Nsocc
   -------------------------------------------------------
     A         18      18       0       0       0       0
   -------------------------------------------------------
    Total      18      18       1       1       1       0
   -------------------------------------------------------

  ==> Integral Setup <==

  ==> DFJK: Density-Fitted J/K Matrices <==

    J tasked:                  Yes
    K tasked:                  Yes
    wK tasked:                  No
    OpenMP threads:              1
    Integrals threads:           1
    Memory (MB):              1430
    Algorithm:                Core
    Integral Cache:           LOAD
    Schwarz Cutoff:          1E-12
    Fitting Condition:       1E-12

   => Auxiliary Basis Set <=

  Basis Set: (AUG-CC-PVDZ AUX)
    Blend: DEF2-QZVPP-JKFIT
    Number of shells: 18
    Number of basis function: 46
    Number of Cartesian functions: 50
    Spherical Harmonics?: true
    Max angular momentum: 2

  Minimum eigenvalue in the overlap matrix is 1.3868018832E-01.
  Using Symmetric Orthogonalization.

  SCF Guess: Superposition of Atomic Densities via on-the-fly atomic UHF.

  ==> Iterations <==

                           Total Energy        Delta E     RMS |[F,P]|

   @DF-RHF iter   0:    -2.85573354204322   -2.85573e+00   1.77876e-04 
   @DF-RHF iter   1:    -2.85574062117380   -7.07913e-06   2.38288e-05 
   @DF-RHF iter   2:    -2.85574076972739   -1.48554e-07   3.66148e-06 DIIS
   @DF-RHF iter   3:    -2.85574077370694   -3.97955e-09   2.00114e-07 DIIS
   @DF-RHF iter   4:    -2.85574077371925   -1.23168e-11   1.82369e-08 DIIS
   @DF-RHF iter   5:    -2.85574077371935   -9.19265e-14   4.83716e-10 DIIS

  ==> Post-Iterations <==

    Orbital Energies (a.u.)
    -----------------------

    Doubly Occupied:                                                      

       1A     -0.917143  

    Virtual:                                                              

       2A      0.101465     3A      0.195830     4A      0.490490  
       5A      0.528058     6A      0.528058     7A      0.607046  
       8A      0.607046     9A      0.644188    10A      0.732916  
      11A      1.730366    12A      3.026134    13A      3.026134  
      14A      3.048721    15A      3.688987    16A      3.688987  
      17A      3.727995    18A      4.550901  

    Final Occupation by Irrep:
              A 
    DOCC [     1 ]

  Energy converged.

  @DF-RHF Final Energy:    -2.85574077371935

   => Energetics <=

    Nuclear Repulsion Energy =              0.0000000000000000
    One-Electron Energy =                  -3.8771945830359726
    Two-Electron Energy =                   1.0214538093166272
    DFT Exchange-Correlation Energy =       0.0000000000000000
    Empirical Dispersion Energy =           0.0000000000000000
    PCM Polarization Energy =               0.0000000000000000
    EFP Energy =                            0.0000000000000000
    Total Energy =                         -2.8557407737193454



Properties will be evaluated at   0.000000,   0.000000,   0.000000 Bohr

Properties computed using the SCF density matrix

  Nuclear Dipole Moment: (a.u.)
     X:     0.0000      Y:     0.0000      Z:    11.3384

  Electronic Dipole Moment: (a.u.)
     X:     0.0000      Y:     0.0000      Z:   -11.3380

  Dipole Moment: (a.u.)
     X:     0.0000      Y:     0.0000      Z:     0.0003     Total:     0.0003

  Dipole Moment: (Debye)
     X:     0.0000      Y:     0.0000      Z:     0.0008     Total:     0.0008


*** tstop() called on odysseus at Tue Jun 27 20:28:27 2017
Module time:
	user time   =       0.24 seconds =       0.00 minutes
	system time =       0.01 seconds =       0.00 minutes
	total time  =          0 seconds =       0.00 minutes
Total time:
	user time   =       0.87 seconds =       0.01 minutes
	system time =       0.02 seconds =       0.00 minutes
	total time  =          1 seconds =       0.02 minutes

*** tstart() called on odysseus
*** at Tue Jun 27 20:28:27 2017


  //>>>>>>>>>>>>>>>>>>>>>>>>>>>>>>>>>>>//
  //               DFMP2               //
  //<<<<<<<<<<<<<<<<<<<<<<<<<<<<<<<<<<<//

   => Loading Basis Set <=

    Name: (AUG-CC-PVDZ AUX)
    Role: RIFIT
    Keyword: DF_BASIS_MP2
    atoms 1-2 entry HE         line    49 file /home/eric/opt/apps/python/psi4conda/share/psi4/basis/aug-cc-pvdz-ri.gbs 

	 --------------------------------------------------------
	                          DF-MP2                         
	      2nd-Order Density-Fitted Moller-Plesset Theory     
	              RMP2 Wavefunction,   1 Threads             
	                                                         
	        Rob Parrish, Justin Turney, Andy Simmonett,      
	           Ed Hohenstein, and C. David Sherrill          
	 --------------------------------------------------------

   => Auxiliary Basis Set <=

  Basis Set: (AUG-CC-PVDZ AUX)
    Blend: AUG-CC-PVDZ-RI
    Number of shells: 14
    Number of basis function: 26
    Number of Cartesian functions: 26
    Spherical Harmonics?: true
    Max angular momentum: 1

	 --------------------------------------------------------
	                 NBF =    18, NAUX =    26
	 --------------------------------------------------------
	   CLASS    FOCC     OCC    AOCC    AVIR     VIR    FVIR
	   PAIRS       0       1       1      17      17       0
	 --------------------------------------------------------

	 Will attempt to load fitting metric from file 97.

	-----------------------------------------------------------
	 ==================> DF-MP2 Energies <==================== 
	-----------------------------------------------------------
	 Reference Energy          =      -2.8557407737193454 [Eh]
	 Singles Energy            =      -0.0000000000000000 [Eh]
	 Same-Spin Energy          =       0.0000000000000000 [Eh]
	 Opposite-Spin Energy      =      -0.0269608599328312 [Eh]
	 Correlation Energy        =      -0.0269608599328312 [Eh]
	 Total Energy              =      -2.8827016336521765 [Eh]
	-----------------------------------------------------------
	 ================> DF-SCS-MP2 Energies <================== 
	-----------------------------------------------------------
	 SCS Same-Spin Scale       =       0.3333333333333333 [-]
	 SCS Opposite-Spin Scale   =       1.2000000000000000 [-]
	 SCS Same-Spin Energy      =       0.0000000000000000 [Eh]
	 SCS Opposite-Spin Energy  =      -0.0323530319193974 [Eh]
	 SCS Correlation Energy    =      -0.0323530319193974 [Eh]
	 SCS Total Energy          =      -2.8880938056387429 [Eh]
	-----------------------------------------------------------


*** tstop() called on odysseus at Tue Jun 27 20:28:27 2017
Module time:
	user time   =       0.05 seconds =       0.00 minutes
	system time =       0.00 seconds =       0.00 minutes
	total time  =          0 seconds =       0.00 minutes
Total time:
	user time   =       0.92 seconds =       0.02 minutes
	system time =       0.02 seconds =       0.00 minutes
	total time  =          1 seconds =       0.02 minutes
   => Loading Basis Set <=

    Name: (AUG-CC-PVDZ AUX)
    Role: RIFIT
    Keyword: DF_BASIS_SAPT
    atoms 1-2 entry HE         line    49 file /home/eric/opt/apps/python/psi4conda/share/psi4/basis/aug-cc-pvdz-ri.gbs 


  //>>>>>>>>>>>>>>>>>>>>>>>>>>>>>>>>>>>//
  //          SAPT2+3(CCD)DMP2         //
  //<<<<<<<<<<<<<<<<<<<<<<<<<<<<<<<<<<<//


*** tstart() called on odysseus
*** at Tue Jun 27 20:28:27 2017

       SAPT2+3   
    CCD+(ST) Disp   
    Ed Hohenstein
     6 June 2009

      Orbital Information
  --------------------------
    NSO        =        18
    NMO        =        18
    NRI        =        26
    NOCC A     =         1
    NOCC B     =         1
    FOCC A     =         0
    FOCC B     =         0
    NVIR A     =        17
    NVIR B     =        17

    Estimated memory usage: 0.1 MB

    Natural Orbital Cutoff:   1.000E-06
    Disp(T3) Truncation:            Yes
    CCD (vv|vv) Truncation:         Yes
    MBPT T2 Truncation:             Yes

    Monomer A: 9 virtual orbitals dropped
    Monomer B: 9 virtual orbitals dropped

    Elst10,r            =    -0.000077324462 [Eh]
    Exch10 (S^2)        =     0.000032603832 [Eh]
    Exch10              =     0.000032604519 [Eh]
    Ind20,r (A<-B)      =    -0.000000323664 [Eh]
    Ind20,r (B<-A)      =    -0.000000323664 [Eh]
    Ind20,r             =    -0.000000647327 [Eh]
    Exch-Ind20,r (A<-B) =     0.000000289776 [Eh]
    Exch-Ind20,r (B<-A) =     0.000000289776 [Eh]
    Exch-Ind20,r        =     0.000000579552 [Eh]
    Disp20              =    -0.000035921630 [Eh]
    Disp20 (NO)         =    -0.000033052657 [Eh]
    Exch-Disp20         =     0.000000403966 [Eh]
    Elst12,r            =     0.000000091150 [Eh]
    Exch11              =     0.000000476642 [Eh]
    Exch12              =     0.000002284478 [Eh]
    Ind22               =    -0.000000065176 [Eh]
    Disp21              =    -0.000006574589 [Eh]
    Disp22 (SDQ)        =    -0.000000818699 [Eh]

    (i =   1 of   1)          0 seconds

    Disp220 (T)         =    -0.000000712875 [Eh]

    (i =   1 of   1)          0 seconds

    Disp202 (T)         =    -0.000000712875 [Eh]

    Disp22 (T)          =    -0.000001425750 [Eh]

    Est. Disp220 (T)    =    -0.000000774753 [Eh]
    Est. Disp202 (T)    =    -0.000000774753 [Eh]

    Est. Disp22 (T)     =    -0.000001549506 [Eh]

==> CCD Dispersion <==

Beginning Monomer A CCD

Iter       Energy (H)          dE (H)             RMS (H)
   1      -0.02696086       0.026960860       0.000000000
   2      -0.03291058       0.005949715       0.000958340
   3      -0.03423094       0.001320365       0.000222037
   4      -0.03452761       0.000296669       0.000052121
   5      -0.03459511       0.000067505       0.000012364  DIIS
   6      -0.03461532       0.000020205       0.000002954  DIIS
   7      -0.03461530      -0.000000018       0.000000008  DIIS
   8      -0.03461532       0.000000017       0.000000004  DIIS
   9      -0.03461532       0.000000005       0.000000001  DIIS

Beginning Monomer B CCD

Iter       Energy (H)          dE (H)             RMS (H)
   1      -0.02696086       0.026960860       0.000000000
   2      -0.03291058       0.005949715       0.000958340
   3      -0.03423094       0.001320365       0.000222037
   4      -0.03452761       0.000296669       0.000052121
   5      -0.03459511       0.000067505       0.000012364  DIIS
   6      -0.03461532       0.000020205       0.000002954  DIIS
   7      -0.03461530      -0.000000018       0.000000008  DIIS
   8      -0.03461532       0.000000017       0.000000004  DIIS
   9      -0.03461532       0.000000005       0.000000001  DIIS

Beginning CCD Dispersion Amplitude Formation

Iter      Energy [mEh]        dE [mEh]           RMS [mEh]
   1      -0.03392126       0.033921264       0.000000000
   2      -0.04241357       0.008492310       0.097100998
   3      -0.04457414       0.002160564       0.025292762
   4      -0.04512966       0.000555525       0.006622472
   5      -0.04527351       0.000143844       0.001737536  DIIS
   6      -0.04532415       0.000050646       0.000456224  DIIS
   7      -0.04532415      -0.000000000       0.000000032  DIIS
   8      -0.04532415       0.000000000       0.000000001  DIIS

Beginning Intramonomer A CCD Dispersion

Iter      Energy [mEh]        dE [mEh]           RMS [mEh]
   1       0.00129045      -0.001290453       0.000000000
   2       0.00155171      -0.000261255       0.000124946
   3       0.00160971      -0.000058005       0.000029039
   4       0.00162297      -0.000013261       0.000007161
   5       0.00162604      -0.000003062       0.000001807  DIIS
   6       0.00162695      -0.000000919       0.000000461  DIIS
   7       0.00162695       0.000000003       0.000000001  DIIS

Beginning Intramonomer B CCD Dispersion

Iter      Energy [mEh]        dE [mEh]           RMS [mEh]
   1       0.00129045      -0.001290453       0.000000000
   2       0.00155171      -0.000261255       0.000124946
   3       0.00160971      -0.000058005       0.000029039
   4       0.00162297      -0.000013261       0.000007161
   5       0.00162604      -0.000003062       0.000001807  DIIS
   6       0.00162695      -0.000000919       0.000000461  DIIS
   7       0.00162695       0.000000003       0.000000001  DIIS

    Disp2 (CCD)         =    -0.000042070251 [Eh]

    Disp220 (S)         =    -0.000462121164 mEh
    Disp202 (S)         =    -0.000462121164 mEh
    Disp22 (S)          =    -0.000924242327 mEh


    (i =   1 of   1)          0 seconds

    Disp220 (T)         =    -0.000001193198 [Eh]

    (i =   1 of   1)          0 seconds

    Disp202 (T)         =    -0.000001193198 [Eh]

    Disp22 (T)          =    -0.000002386396 [Eh]

    Est. Disp220 (T)    =    -0.000001296768 [Eh]
    Est. Disp202 (T)    =    -0.000001296768 [Eh]

    Est. Disp22 (T)     =    -0.000002593536 [Eh]
    Elst13,r            =     0.000000161421 [Eh]
    Disp30              =    -0.000000062991 [Eh]
    Exch-Disp30         =     0.000000002794 [Eh]
    Ind30               =    -0.000000291837 [Eh]
    Ind30,r             =    -0.000000337736 [Eh]
    Exch-Ind30          =     0.000000209056 [Eh]
    Ind-Disp30          =    -0.000000255860 [Eh]
    Exch-Ind-Disp30     =     0.000000179123 [Eh]

    SAPT Results 
  --------------------------------------------------------------------------------------------------------
    Electrostatics                 -0.07707189 [mEh]      -0.04836334 [kcal/mol]      -0.20235225 [kJ/mol]
      Elst10,r                     -0.07732446 [mEh]      -0.04852183 [kcal/mol]      -0.20301538 [kJ/mol]
      Elst12,r                      0.00009115 [mEh]       0.00005720 [kcal/mol]       0.00023931 [kJ/mol]
      Elst13,r                      0.00016142 [mEh]       0.00010129 [kcal/mol]       0.00042381 [kJ/mol]

    Exchange                        0.03536564 [mEh]       0.02219227 [kcal/mol]       0.09285249 [kJ/mol]
      Exch10                        0.03260452 [mEh]       0.02045965 [kcal/mol]       0.08560317 [kJ/mol]
      Exch10(S^2)                   0.03260383 [mEh]       0.02045921 [kcal/mol]       0.08560136 [kJ/mol]
      Exch11(S^2)                   0.00047664 [mEh]       0.00029910 [kcal/mol]       0.00125142 [kJ/mol]
      Exch12(S^2)                   0.00228448 [mEh]       0.00143353 [kcal/mol]       0.00599790 [kJ/mol]

    Induction                       0.06504144 [mEh]       0.04081412 [kcal/mol]       0.17076630 [kJ/mol]
      Ind20,r                      -0.00064733 [mEh]      -0.00040620 [kcal/mol]      -0.00169956 [kJ/mol]
      Ind30,r                      -0.00033774 [mEh]      -0.00021193 [kcal/mol]      -0.00088673 [kJ/mol]
      Ind22                        -0.00006518 [mEh]      -0.00004090 [kcal/mol]      -0.00017112 [kJ/mol]
      Exch-Ind20,r                  0.00057955 [mEh]       0.00036367 [kcal/mol]       0.00152161 [kJ/mol]
      Exch-Ind30,r                  0.00024194 [mEh]       0.00015182 [kcal/mol]       0.00063520 [kJ/mol]
      Exch-Ind22                    0.00005835 [mEh]       0.00003662 [kcal/mol]       0.00015320 [kJ/mol]
      delta HF,r (2)                0.06703647 [mEh]       0.04206602 [kcal/mol]       0.17600425 [kJ/mol]
      delta HF,r (3)                0.06713227 [mEh]       0.04212614 [kcal/mol]       0.17625577 [kJ/mol]
      delta MP2,r (2)              -0.00199717 [mEh]      -0.00125324 [kcal/mol]      -0.00524356 [kJ/mol]
      delta MP2,r (3)              -0.00192043 [mEh]      -0.00120509 [kcal/mol]      -0.00504209 [kJ/mol]

    Dispersion                     -0.04532100 [mEh]      -0.02843936 [kcal/mol]      -0.11899028 [kJ/mol]
      Disp20                       -0.03592163 [mEh]      -0.02254116 [kcal/mol]      -0.09431224 [kJ/mol]
      Disp30                       -0.00006299 [mEh]      -0.00003953 [kcal/mol]      -0.00016538 [kJ/mol]
      Disp21                       -0.00657459 [mEh]      -0.00412562 [kcal/mol]      -0.01726158 [kJ/mol]
      Disp22 (SDQ)                 -0.00081870 [mEh]      -0.00051374 [kcal/mol]      -0.00214950 [kJ/mol]
      Disp22 (T)                   -0.00142575 [mEh]      -0.00089467 [kcal/mol]      -0.00374331 [kJ/mol]
      Est. Disp22 (T)              -0.00154951 [mEh]      -0.00097233 [kcal/mol]      -0.00406823 [kJ/mol]
      Disp2 (CCD)                  -0.04207025 [mEh]      -0.02639948 [kcal/mol]      -0.11045544 [kJ/mol]
      Disp22 (S) (CCD)             -0.00092424 [mEh]      -0.00057997 [kcal/mol]      -0.00242660 [kJ/mol]
      Disp22 (T) (CCD)             -0.00238640 [mEh]      -0.00149749 [kcal/mol]      -0.00626548 [kJ/mol]
      Est. Disp22 (T) (CCD)        -0.00259354 [mEh]      -0.00162747 [kcal/mol]      -0.00680933 [kJ/mol]
      Exch-Disp20                   0.00040397 [mEh]       0.00025349 [kcal/mol]       0.00106061 [kJ/mol]
      Exch-Disp30                   0.00000279 [mEh]       0.00000175 [kcal/mol]       0.00000734 [kJ/mol]
      Ind-Disp30                   -0.00025586 [mEh]      -0.00016055 [kcal/mol]      -0.00067176 [kJ/mol]
      Exch-Ind-Disp30               0.00017912 [mEh]       0.00011240 [kcal/mol]       0.00047029 [kJ/mol]

  Total HF                          0.02224875 [mEh]       0.01396130 [kcal/mol]       0.05841410 [kJ/mol]
  Total SAPT0                      -0.01326891 [mEh]      -0.00832637 [kcal/mol]      -0.03483753 [kJ/mol]
  Total SAPT2                      -0.01042347 [mEh]      -0.00654082 [kcal/mol]      -0.02736681 [kJ/mol]
  Total SAPT2+                     -0.01936626 [mEh]      -0.01215251 [kcal/mol]      -0.05084612 [kJ/mol]
  Total SAPT2+(3)                  -0.01926783 [mEh]      -0.01209075 [kcal/mol]      -0.05058769 [kJ/mol]
  Total SAPT2+3                    -0.01934177 [mEh]      -0.01213715 [kcal/mol]      -0.05078182 [kJ/mol]
  Total SAPT2+dMP2                 -0.02136343 [mEh]      -0.01340575 [kcal/mol]      -0.05608968 [kJ/mol]
  Total SAPT2+(3)dMP2              -0.02126500 [mEh]      -0.01334399 [kcal/mol]      -0.05583125 [kJ/mol]
  Total SAPT2+3dMP2                -0.02126220 [mEh]      -0.01334223 [kcal/mol]      -0.05582391 [kJ/mol]
  Total SAPT2+(CCD)                -0.02008987 [mEh]      -0.01260658 [kcal/mol]      -0.05274594 [kJ/mol]
  Total SAPT2+(3)(CCD)             -0.01999144 [mEh]      -0.01254482 [kcal/mol]      -0.05248752 [kJ/mol]
  Total SAPT2+3(CCD)               -0.02006538 [mEh]      -0.01259122 [kcal/mol]      -0.05268165 [kJ/mol]
  Total SAPT2+(CCD)dMP2            -0.02208703 [mEh]      -0.01385982 [kcal/mol]      -0.05798950 [kJ/mol]
  Total SAPT2+(3)(CCD)dMP2         -0.02198860 [mEh]      -0.01379806 [kcal/mol]      -0.05773108 [kJ/mol]
  Total SAPT2+3(CCD)dMP2           -0.02198581 [mEh]      -0.01379630 [kcal/mol]      -0.05772374 [kJ/mol]

  Special recipe for scaled SAPT0 (see Manual):
    Electrostatics sSAPT0          -0.07732446 [mEh]      -0.04852183 [kcal/mol]      -0.20301538 [kJ/mol]
    Exchange sSAPT0                 0.03260452 [mEh]       0.02045965 [kcal/mol]       0.08560317 [kJ/mol]
    Induction sSAPT0                0.06696873 [mEh]       0.04202351 [kcal/mol]       0.17582640 [kJ/mol]
    Dispersion sSAPT0              -0.03551764 [mEh]      -0.02228766 [kcal/mol]      -0.09325156 [kJ/mol]
  Total sSAPT0                     -0.01326885 [mEh]      -0.00832633 [kcal/mol]      -0.03483737 [kJ/mol]
  --------------------------------------------------------------------------------------------------------

*** tstop() called on odysseus at Tue Jun 27 20:28:27 2017
Module time:
	user time   =       0.06 seconds =       0.00 minutes
	system time =       0.00 seconds =       0.00 minutes
	total time  =          0 seconds =       0.00 minutes
Total time:
	user time   =       1.01 seconds =       0.02 minutes
	system time =       0.02 seconds =       0.00 minutes
	total time  =          1 seconds =       0.02 minutes


  Variable Map:
  ----------------------------------------------------------------------------
  "CURRENT CORRELATION ENERGY"           =>      -0.026960859933
  "CURRENT DIPOLE X"                     =>       0.000000000000
  "CURRENT DIPOLE Y"                     =>       0.000000000000
  "CURRENT DIPOLE Z"                     =>       0.000802208920
  "CURRENT ENERGY"                       =>      -0.000021985808
  "CURRENT REFERENCE ENERGY"             =>      -2.855740773719
  "HF TOTAL ENERGY"                      =>      -2.855740773719
  "MP2 CORRELATION ENERGY"               =>      -0.026960859933
  "MP2 OPPOSITE-SPIN CORRELATION ENERGY" =>      -0.026960859933
  "MP2 SAME-SPIN CORRELATION ENERGY"     =>       0.000000000000
  "MP2 SINGLES ENERGY"                   =>      -0.000000000000
  "MP2 TOTAL ENERGY"                     =>      -2.882701633652
  "NUCLEAR REPULSION ENERGY"             =>       0.000000000000
  "ONE-ELECTRON ENERGY"                  =>      -3.877194583036
  "PCM POLARIZATION ENERGY"              =>       0.000000000000
  "SAPT ALPHA"                           =>       0.000000000000
  "SAPT CCD DISP"                        =>      -0.000045184063
  "SAPT CT ENERGY"                       =>      -0.000000170399
  "SAPT DISP ENERGY"                     =>      -0.000045320997
  "SAPT DISP2(CCD) ENERGY"               =>      -0.000042070251
  "SAPT DISP20 ENERGY"                   =>      -0.000035921630
  "SAPT DISP21 ENERGY"                   =>      -0.000006574589
  "SAPT DISP22(S)(CCD) ENERGY"           =>      -0.000000924242
  "SAPT DISP22(SDQ) ENERGY"              =>      -0.000000818699
  "SAPT DISP22(T) ENERGY"                =>      -0.000001425750
  "SAPT DISP22(T)(CCD) ENERGY"           =>      -0.000002386396
  "SAPT DISP30 ENERGY"                   =>      -0.000000062991
  "SAPT ELST ENERGY"                     =>      -0.000077071891
  "SAPT ELST10,R ENERGY"                 =>      -0.000077324462
  "SAPT ELST12,R ENERGY"                 =>       0.000000091150
  "SAPT ELST13,R ENERGY"                 =>       0.000000161421
  "SAPT ENERGY"                          =>       0.000000000000
  "SAPT EST.DISP22(T) ENERGY"            =>      -0.000001549506
  "SAPT EST.DISP22(T)(CCD) ENERGY"       =>      -0.000002593536
  "SAPT EXCH ENERGY"                     =>       0.000035365640
  "SAPT EXCH-DISP20 ENERGY"              =>       0.000000403966
  "SAPT EXCH-DISP30 ENERGY"              =>       0.000000002794
  "SAPT EXCH-IND-DISP30 ENERGY"          =>       0.000000179123
  "SAPT EXCH-IND20,R ENERGY"             =>       0.000000579552
  "SAPT EXCH-IND22 ENERGY"               =>       0.000000058352
  "SAPT EXCH-IND30,R ENERGY"             =>       0.000000241936
  "SAPT EXCH10 ENERGY"                   =>       0.000032604519
  "SAPT EXCH10(S^2) ENERGY"              =>       0.000032603832
  "SAPT EXCH11(S^2) ENERGY"              =>       0.000000476642
  "SAPT EXCH12(S^2) ENERGY"              =>       0.000002284478
  "SAPT EXCHSCAL"                        =>       1.000000000000
  "SAPT EXCHSCAL1"                       =>       1.000021064392
  "SAPT EXCHSCAL3"                       =>       1.000063194507
  "SAPT HF TOTAL ENERGY"                 =>       0.000022248751
  "SAPT HF(2) ALPHA=0.0 ENERGY"          =>       0.000067036469
  "SAPT HF(2) ENERGY"                    =>       0.000067036469
  "SAPT HF(3) ENERGY"                    =>       0.000067132269
  "SAPT IND ENERGY"                      =>       0.000065041440
  "SAPT IND-DISP30 ENERGY"               =>      -0.000000255860
  "SAPT IND20,R ENERGY"                  =>      -0.000000647327
  "SAPT IND22 ENERGY"                    =>      -0.000000065176
  "SAPT IND30,R ENERGY"                  =>      -0.000000337736
  "SAPT MP2 CORRELATION ENERGY"          =>      -0.000034669383
  "SAPT MP2(2) ENERGY"                   =>      -0.000001997166
  "SAPT MP2(3) ENERGY"                   =>      -0.000001920430
  "SAPT MP4 DISP"                        =>      -0.000044460457
  "SAPT TOTAL ENERGY"                    =>      -0.000021985808
  "SAPT0 DISP ENERGY"                    =>      -0.000035517663
  "SAPT0 ELST ENERGY"                    =>      -0.000077324462
  "SAPT0 EXCH ENERGY"                    =>       0.000032604519
  "SAPT0 IND ENERGY"                     =>       0.000066968694
  "SAPT0 TOTAL ENERGY"                   =>      -0.000013268913
  "SAPT2 DISP ENERGY"                    =>      -0.000035517663
  "SAPT2 ELST ENERGY"                    =>      -0.000077233312
  "SAPT2 EXCH ENERGY"                    =>       0.000035365640
  "SAPT2 IND ENERGY"                     =>       0.000066961870
  "SAPT2 TOTAL ENERGY"                   =>      -0.000010423466
  "SAPT2+ DISP ENERGY"                   =>      -0.000044460457
  "SAPT2+ ELST ENERGY"                   =>      -0.000077233312
  "SAPT2+ EXCH ENERGY"                   =>       0.000035365640
  "SAPT2+ IND ENERGY"                    =>       0.000066961870
  "SAPT2+ TOTAL ENERGY"                  =>      -0.000019366260
  "SAPT2+(3) DISP ENERGY"                =>      -0.000044523449
  "SAPT2+(3) ELST ENERGY"                =>      -0.000077071891
  "SAPT2+(3) EXCH ENERGY"                =>       0.000035365640
  "SAPT2+(3) IND ENERGY"                 =>       0.000066961870
  "SAPT2+(3) TOTAL ENERGY"               =>      -0.000019267830
  "SAPT2+(3)(CCD) DISP ENERGY"           =>      -0.000045247054
  "SAPT2+(3)(CCD) ELST ENERGY"           =>      -0.000077071891
  "SAPT2+(3)(CCD) EXCH ENERGY"           =>       0.000035365640
  "SAPT2+(3)(CCD) IND ENERGY"            =>       0.000066961870
  "SAPT2+(3)(CCD) TOTAL ENERGY"          =>      -0.000019991436
  "SAPT2+(3)(CCD)DMP2 DISP ENERGY"       =>      -0.000045247054
  "SAPT2+(3)(CCD)DMP2 ELST ENERGY"       =>      -0.000077071891
  "SAPT2+(3)(CCD)DMP2 EXCH ENERGY"       =>       0.000035365640
  "SAPT2+(3)(CCD)DMP2 IND ENERGY"        =>       0.000064964704
  "SAPT2+(3)(CCD)DMP2 TOTAL ENERGY"      =>      -0.000021988602
  "SAPT2+(3)DMP2 DISP ENERGY"            =>      -0.000044523449
  "SAPT2+(3)DMP2 ELST ENERGY"            =>      -0.000077071891
  "SAPT2+(3)DMP2 EXCH ENERGY"            =>       0.000035365640
  "SAPT2+(3)DMP2 IND ENERGY"             =>       0.000064964704
  "SAPT2+(3)DMP2 TOTAL ENERGY"           =>      -0.000021264996
  "SAPT2+(CCD) DISP ENERGY"              =>      -0.000045184063
  "SAPT2+(CCD) ELST ENERGY"              =>      -0.000077233312
  "SAPT2+(CCD) EXCH ENERGY"              =>       0.000035365640
  "SAPT2+(CCD) IND ENERGY"               =>       0.000066961870
  "SAPT2+(CCD) TOTAL ENERGY"             =>      -0.000020089866
  "SAPT2+(CCD)DMP2 DISP ENERGY"          =>      -0.000045184063
  "SAPT2+(CCD)DMP2 ELST ENERGY"          =>      -0.000077233312
  "SAPT2+(CCD)DMP2 EXCH ENERGY"          =>       0.000035365640
  "SAPT2+(CCD)DMP2 IND ENERGY"           =>       0.000064964704
  "SAPT2+(CCD)DMP2 TOTAL ENERGY"         =>      -0.000022087032
  "SAPT2+3 DISP ENERGY"                  =>      -0.000044597391
  "SAPT2+3 ELST ENERGY"                  =>      -0.000077071891
  "SAPT2+3 EXCH ENERGY"                  =>       0.000035365640
  "SAPT2+3 IND ENERGY"                   =>       0.000066961870
  "SAPT2+3 TOTAL ENERGY"                 =>      -0.000019341772
  "SAPT2+3(CCD) DISP ENERGY"             =>      -0.000045320997
  "SAPT2+3(CCD) ELST ENERGY"             =>      -0.000077071891
  "SAPT2+3(CCD) EXCH ENERGY"             =>       0.000035365640
  "SAPT2+3(CCD) IND ENERGY"              =>       0.000066961870
  "SAPT2+3(CCD) TOTAL ENERGY"            =>      -0.000020065378
  "SAPT2+3(CCD)DMP2 DISP ENERGY"         =>      -0.000045320997
  "SAPT2+3(CCD)DMP2 ELST ENERGY"         =>      -0.000077071891
  "SAPT2+3(CCD)DMP2 EXCH ENERGY"         =>       0.000035365640
  "SAPT2+3(CCD)DMP2 IND ENERGY"          =>       0.000065041440
  "SAPT2+3(CCD)DMP2 TOTAL ENERGY"        =>      -0.000021985808
  "SAPT2+3DMP2 DISP ENERGY"              =>      -0.000044597391
  "SAPT2+3DMP2 ELST ENERGY"              =>      -0.000077071891
  "SAPT2+3DMP2 EXCH ENERGY"              =>       0.000035365640
  "SAPT2+3DMP2 IND ENERGY"               =>       0.000065041440
  "SAPT2+3DMP2 TOTAL ENERGY"             =>      -0.000021262202
  "SAPT2+DMP2 DISP ENERGY"               =>      -0.000044460457
  "SAPT2+DMP2 ELST ENERGY"               =>      -0.000077233312
  "SAPT2+DMP2 EXCH ENERGY"               =>       0.000035365640
  "SAPT2+DMP2 IND ENERGY"                =>       0.000064964704
  "SAPT2+DMP2 TOTAL ENERGY"              =>      -0.000021363426
  "SCF DIPOLE X"                         =>       0.000000000000
  "SCF DIPOLE Y"                         =>       0.000000000000
  "SCF DIPOLE Z"                         =>       0.000802208920
  "SCF ITERATION ENERGY"                 =>      -2.855740773719
  "SCF ITERATIONS"                       =>       5.000000000000
  "SCF TOTAL ENERGY"                     =>      -2.855740773719
  "SCS-MP2 CORRELATION ENERGY"           =>      -0.032353031919
  "SCS-MP2 TOTAL ENERGY"                 =>      -2.888093805639
  "SCS-SAPT0 ELST ENERGY"                =>      -0.000077324462
  "SCS-SAPT0 EXCH ENERGY"                =>       0.000032604519
  "SCS-SAPT0 IND ENERGY"                 =>       0.000066968694
  "SSAPT0 DISP ENERGY"                   =>      -0.000035517638
  "SSAPT0 ELST ENERGY"                   =>      -0.000077324462
  "SSAPT0 EXCH ENERGY"                   =>       0.000032604519
  "SSAPT0 IND ENERGY"                    =>       0.000066968730
  "SSAPT0 TOTAL ENERGY"                  =>      -0.000013268850
  "TWO-ELECTRON ENERGY"                  =>       1.021453809317



*** Psi4 exiting successfully. Buy a developer a beer!
