
    -----------------------------------------------------------------------
          Psi4: An Open-Source Ab Initio Electronic Structure Package
                               Psi4 1.1 release

                         Git: Rev {HEAD} add49b9 


    R. M. Parrish, L. A. Burns, D. G. A. Smith, A. C. Simmonett,
    A. E. DePrince III, E. G. Hohenstein, U. Bozkaya, A. Yu. Sokolov,
    R. Di Remigio, R. M. Richard, J. F. Gonthier, A. M. James,
    H. R. McAlexander, A. Kumar, M. Saitow, X. Wang, B. P. Pritchard,
    P. Verma, H. F. Schaefer III, K. Patkowski, R. A. King, E. F. Valeev,
    F. A. Evangelista, J. M. Turney, T. D. Crawford, and C. D. Sherrill,
    J. Chem. Theory Comput. in press (2017).
    (doi: 10.1021/acs.jctc.7b00174)

    -----------------------------------------------------------------------


    Psi4 started on: Tuesday, 27 June 2017 08:05PM

    Process ID:  23271
    PSIDATADIR: /home/eric/opt/apps/python/psi4conda/share/psi4
    Memory:     500.0 MiB
    Threads:    1
    
  ==> Input File <==

--------------------------------------------------------------------------
# -*- mode: python -*-

from __future__ import print_function

memory 2 gb

molecule dimer {
He           0.000000000000     0.000000000000     0.000
--
He           0.000000000000     0.000000000000     7.000

symmetry c1
units angstrom
no_reorient
no_com
}

set {
    basis aug-cc-pvdz
}

energy('sapt0')

print_variables()
--------------------------------------------------------------------------

  Memory set to   1.863 GiB by Python driver.

  //>>>>>>>>>>>>>>>>>>>>>>>>>>>>>>>>>>>//
  //              Dimer HF             //
  //<<<<<<<<<<<<<<<<<<<<<<<<<<<<<<<<<<<//


*** tstart() called on odysseus
*** at Tue Jun 27 20:05:12 2017

   => Loading Basis Set <=

    Name: AUG-CC-PVDZ
    Role: ORBITAL
    Keyword: BASIS
    atoms 1-2 entry HE         line    49 file /home/eric/opt/apps/python/psi4conda/share/psi4/basis/aug-cc-pvdz.gbs 

    There are an even number of electrons - assuming singlet.
    Specify the multiplicity in the molecule input block.


         ---------------------------------------------------------
                                   SCF
            by Justin Turney, Rob Parrish, and Andy Simmonett
                              RHF Reference
                        1 Threads,   1907 MiB Core
         ---------------------------------------------------------

  ==> Geometry <==

    Molecular point group: c1
    Full point group: C_inf_v

    Geometry (in Angstrom), charge = 0, multiplicity = 1:

       Center              X                  Y                   Z               Mass       
    ------------   -----------------  -----------------  -----------------  -----------------
          HE          0.000000000000     0.000000000000     0.000000000000     4.002603254150
          HE          0.000000000000     0.000000000000     7.000000000000     4.002603254150

  Running in c1 symmetry.

  Rotational constants: A = ************  B =      0.08595  C =      0.08595 [cm^-1]
  Rotational constants: A = ************  B =   2576.78730  C =   2576.78730 [MHz]
  Nuclear repulsion =    0.302386976337143

  Charge       = 0
  Multiplicity = 1
  Electrons    = 4
  Nalpha       = 2
  Nbeta        = 2

  ==> Algorithm <==

  SCF Algorithm Type is DF.
  DIIS enabled.
  MOM disabled.
  Fractional occupation disabled.
  Guess Type is SAD.
  Energy threshold   = 1.00e-08
  Density threshold  = 1.00e-08
  Integral threshold = 0.00e+00

  ==> Primary Basis <==

  Basis Set: AUG-CC-PVDZ
    Blend: AUG-CC-PVDZ
    Number of shells: 10
    Number of basis function: 18
    Number of Cartesian functions: 18
    Spherical Harmonics?: true
    Max angular momentum: 1

   => Loading Basis Set <=

    Name: (AUG-CC-PVDZ AUX)
    Role: JKFIT
    Keyword: DF_BASIS_SCF
    atoms 1-2 entry HE         line    38 file /home/eric/opt/apps/python/psi4conda/share/psi4/basis/def2-qzvpp-jkfit.gbs 

  ==> Pre-Iterations <==

   -------------------------------------------------------
    Irrep   Nso     Nmo     Nalpha   Nbeta   Ndocc  Nsocc
   -------------------------------------------------------
     A         18      18       0       0       0       0
   -------------------------------------------------------
    Total      18      18       2       2       2       0
   -------------------------------------------------------

  ==> Integral Setup <==

  ==> DFJK: Density-Fitted J/K Matrices <==

    J tasked:                  Yes
    K tasked:                  Yes
    wK tasked:                  No
    OpenMP threads:              1
    Integrals threads:           1
    Memory (MB):              1430
    Algorithm:                Core
    Integral Cache:           SAVE
    Schwarz Cutoff:          1E-12
    Fitting Condition:       1E-12

   => Auxiliary Basis Set <=

  Basis Set: (AUG-CC-PVDZ AUX)
    Blend: DEF2-QZVPP-JKFIT
    Number of shells: 18
    Number of basis function: 46
    Number of Cartesian functions: 50
    Spherical Harmonics?: true
    Max angular momentum: 2

  Minimum eigenvalue in the overlap matrix is 1.7498775510E-01.
  Using Symmetric Orthogonalization.

  SCF Guess: Superposition of Atomic Densities via on-the-fly atomic UHF.

  ==> Iterations <==

                           Total Energy        Delta E     RMS |[F,P]|

   @DF-RHF iter   0:    -5.71147160493247   -5.71147e+00   8.68964e-06 
   @DF-RHF iter   1:    -5.71147163140337   -2.64709e-08   2.00392e-06 
   @DF-RHF iter   2:    -5.71147163278258   -1.37921e-09   4.67785e-07 DIIS
   @DF-RHF iter   3:    -5.71147163286112   -7.85407e-11   2.81341e-09 DIIS

  ==> Post-Iterations <==

    Orbital Energies (a.u.)
    -----------------------

    Doubly Occupied:                                                      

       1A     -0.917177     2A     -0.917177  

    Virtual:                                                              

       3A      0.173738     4A      0.176897     5A      0.532071  
       6A      0.532071     7A      0.532078     8A      0.532078  
       9A      0.532078    10A      0.532078    11A      1.712142  
      12A      1.715184    13A      3.025914    14A      3.025914  
      15A      3.025915    16A      3.025915    17A      3.025915  
      18A      3.025915  

    Final Occupation by Irrep:
              A 
    DOCC [     2 ]

  Energy converged.

  @DF-RHF Final Energy:    -5.71147163286112

   => Energetics <=

    Nuclear Repulsion Energy =              0.3023869763371428
    One-Electron Energy =                  -8.3590077676881904
    Two-Electron Energy =                   2.3451491584899258
    DFT Exchange-Correlation Energy =       0.0000000000000000
    Empirical Dispersion Energy =           0.0000000000000000
    PCM Polarization Energy =               0.0000000000000000
    EFP Energy =                            0.0000000000000000
    Total Energy =                         -5.7114716328611213



Properties will be evaluated at   0.000000,   0.000000,   0.000000 Bohr

Properties computed using the SCF density matrix

  Nuclear Dipole Moment: (a.u.)
     X:     0.0000      Y:     0.0000      Z:    26.4562

  Electronic Dipole Moment: (a.u.)
     X:     0.0000      Y:     0.0000      Z:   -26.4562

  Dipole Moment: (a.u.)
     X:     0.0000      Y:     0.0000      Z:     0.0000     Total:     0.0000

  Dipole Moment: (Debye)
     X:     0.0000      Y:     0.0000      Z:     0.0000     Total:     0.0000


*** tstop() called on odysseus at Tue Jun 27 20:05:12 2017
Module time:
	user time   =       0.26 seconds =       0.00 minutes
	system time =       0.00 seconds =       0.00 minutes
	total time  =          0 seconds =       0.00 minutes
Total time:
	user time   =       0.26 seconds =       0.00 minutes
	system time =       0.00 seconds =       0.00 minutes
	total time  =          0 seconds =       0.00 minutes

  //>>>>>>>>>>>>>>>>>>>>>>>>>>>>>>>>>>>//
  //            Monomer A HF           //
  //<<<<<<<<<<<<<<<<<<<<<<<<<<<<<<<<<<<//


*** tstart() called on odysseus
*** at Tue Jun 27 20:05:12 2017

   => Loading Basis Set <=

    Name: AUG-CC-PVDZ
    Role: ORBITAL
    Keyword: BASIS
    atoms 1-2 entry HE         line    49 file /home/eric/opt/apps/python/psi4conda/share/psi4/basis/aug-cc-pvdz.gbs 

    There are an even number of electrons - assuming singlet.
    Specify the multiplicity in the molecule input block.


         ---------------------------------------------------------
                                   SCF
            by Justin Turney, Rob Parrish, and Andy Simmonett
                              RHF Reference
                        1 Threads,   1907 MiB Core
         ---------------------------------------------------------

  ==> Geometry <==

    Molecular point group: c1
    Full point group: C_inf_v

    Geometry (in Angstrom), charge = 0, multiplicity = 1:

       Center              X                  Y                   Z               Mass       
    ------------   -----------------  -----------------  -----------------  -----------------
          HE          0.000000000000     0.000000000000     0.000000000000     4.002603254150
          HE(Gh)      0.000000000000     0.000000000000     7.000000000000     4.002603254150

  Running in c1 symmetry.

  Rotational constants: A = ************  B =      0.08595  C =      0.08595 [cm^-1]
  Rotational constants: A = ************  B =   2576.78730  C =   2576.78730 [MHz]
  Nuclear repulsion =    0.000000000000000

  Charge       = 0
  Multiplicity = 1
  Electrons    = 2
  Nalpha       = 1
  Nbeta        = 1

  ==> Algorithm <==

  SCF Algorithm Type is DF.
  DIIS enabled.
  MOM disabled.
  Fractional occupation disabled.
  Guess Type is SAD.
  Energy threshold   = 1.00e-08
  Density threshold  = 1.00e-08
  Integral threshold = 0.00e+00

  ==> Primary Basis <==

  Basis Set: AUG-CC-PVDZ
    Blend: AUG-CC-PVDZ
    Number of shells: 10
    Number of basis function: 18
    Number of Cartesian functions: 18
    Spherical Harmonics?: true
    Max angular momentum: 1

   => Loading Basis Set <=

    Name: (AUG-CC-PVDZ AUX)
    Role: JKFIT
    Keyword: DF_BASIS_SCF
    atoms 1-2 entry HE         line    38 file /home/eric/opt/apps/python/psi4conda/share/psi4/basis/def2-qzvpp-jkfit.gbs 

  ==> Pre-Iterations <==

   -------------------------------------------------------
    Irrep   Nso     Nmo     Nalpha   Nbeta   Ndocc  Nsocc
   -------------------------------------------------------
     A         18      18       0       0       0       0
   -------------------------------------------------------
    Total      18      18       1       1       1       0
   -------------------------------------------------------

  ==> Integral Setup <==

  ==> DFJK: Density-Fitted J/K Matrices <==

    J tasked:                  Yes
    K tasked:                  Yes
    wK tasked:                  No
    OpenMP threads:              1
    Integrals threads:           1
    Memory (MB):              1430
    Algorithm:                Core
    Integral Cache:           LOAD
    Schwarz Cutoff:          1E-12
    Fitting Condition:       1E-12

   => Auxiliary Basis Set <=

  Basis Set: (AUG-CC-PVDZ AUX)
    Blend: DEF2-QZVPP-JKFIT
    Number of shells: 18
    Number of basis function: 46
    Number of Cartesian functions: 50
    Spherical Harmonics?: true
    Max angular momentum: 2

  Minimum eigenvalue in the overlap matrix is 1.7498775510E-01.
  Using Symmetric Orthogonalization.

  SCF Guess: Superposition of Atomic Densities via on-the-fly atomic UHF.

  ==> Iterations <==

                           Total Energy        Delta E     RMS |[F,P]|

   @DF-RHF iter   0:    -2.85573413890126   -2.85573e+00   3.90904e-06 
   @DF-RHF iter   1:    -2.85573414400908   -5.10782e-09   8.65552e-07 
   @DF-RHF iter   2:    -2.85573414426271   -2.53633e-10   1.99641e-07 DIIS
   @DF-RHF iter   3:    -2.85573414427695   -1.42371e-11   1.14909e-09 DIIS

  ==> Post-Iterations <==

    Orbital Energies (a.u.)
    -----------------------

    Doubly Occupied:                                                      

       1A     -0.917166  

    Virtual:                                                              

       2A      0.100088     3A      0.175582     4A      0.532180  
       5A      0.532181     6A      0.532181     7A      0.602275  
       8A      0.602281     9A      0.602281    10A      0.645023  
      11A      1.713730    12A      3.025934    13A      3.025935  
      14A      3.025935    15A      3.688360    16A      3.688360  
      17A      3.688360    18A      4.533052  

    Final Occupation by Irrep:
              A 
    DOCC [     1 ]

  Energy converged.

  @DF-RHF Final Energy:    -2.85573414427695

   => Energetics <=

    Nuclear Repulsion Energy =              0.0000000000000000
    One-Electron Energy =                  -3.8771357040650707
    Two-Electron Energy =                   1.0214015597881205
    DFT Exchange-Correlation Energy =       0.0000000000000000
    Empirical Dispersion Energy =           0.0000000000000000
    PCM Polarization Energy =               0.0000000000000000
    EFP Energy =                            0.0000000000000000
    Total Energy =                         -2.8557341442769504



Properties will be evaluated at   0.000000,   0.000000,   0.000000 Bohr

Properties computed using the SCF density matrix

  Nuclear Dipole Moment: (a.u.)
     X:     0.0000      Y:     0.0000      Z:     0.0000

  Electronic Dipole Moment: (a.u.)
     X:     0.0000      Y:    -0.0000      Z:     0.0000

  Dipole Moment: (a.u.)
     X:     0.0000      Y:    -0.0000      Z:     0.0000     Total:     0.0000

  Dipole Moment: (Debye)
     X:     0.0000      Y:    -0.0000      Z:     0.0000     Total:     0.0000


*** tstop() called on odysseus at Tue Jun 27 20:05:13 2017
Module time:
	user time   =       0.26 seconds =       0.00 minutes
	system time =       0.01 seconds =       0.00 minutes
	total time  =          1 seconds =       0.02 minutes
Total time:
	user time   =       0.52 seconds =       0.01 minutes
	system time =       0.01 seconds =       0.00 minutes
	total time  =          1 seconds =       0.02 minutes

  //>>>>>>>>>>>>>>>>>>>>>>>>>>>>>>>>>>>//
  //            Monomer B HF           //
  //<<<<<<<<<<<<<<<<<<<<<<<<<<<<<<<<<<<//


*** tstart() called on odysseus
*** at Tue Jun 27 20:05:13 2017

   => Loading Basis Set <=

    Name: AUG-CC-PVDZ
    Role: ORBITAL
    Keyword: BASIS
    atoms 1-2 entry HE         line    49 file /home/eric/opt/apps/python/psi4conda/share/psi4/basis/aug-cc-pvdz.gbs 

    There are an even number of electrons - assuming singlet.
    Specify the multiplicity in the molecule input block.


         ---------------------------------------------------------
                                   SCF
            by Justin Turney, Rob Parrish, and Andy Simmonett
                              RHF Reference
                        1 Threads,   1907 MiB Core
         ---------------------------------------------------------

  ==> Geometry <==

    Molecular point group: c1
    Full point group: C_inf_v

    Geometry (in Angstrom), charge = 0, multiplicity = 1:

       Center              X                  Y                   Z               Mass       
    ------------   -----------------  -----------------  -----------------  -----------------
          HE(Gh)      0.000000000000     0.000000000000     0.000000000000     4.002603254150
          HE          0.000000000000     0.000000000000     7.000000000000     4.002603254150

  Running in c1 symmetry.

  Rotational constants: A = ************  B =      0.08595  C =      0.08595 [cm^-1]
  Rotational constants: A = ************  B =   2576.78730  C =   2576.78730 [MHz]
  Nuclear repulsion =    0.000000000000000

  Charge       = 0
  Multiplicity = 1
  Electrons    = 2
  Nalpha       = 1
  Nbeta        = 1

  ==> Algorithm <==

  SCF Algorithm Type is DF.
  DIIS enabled.
  MOM disabled.
  Fractional occupation disabled.
  Guess Type is SAD.
  Energy threshold   = 1.00e-08
  Density threshold  = 1.00e-08
  Integral threshold = 0.00e+00

  ==> Primary Basis <==

  Basis Set: AUG-CC-PVDZ
    Blend: AUG-CC-PVDZ
    Number of shells: 10
    Number of basis function: 18
    Number of Cartesian functions: 18
    Spherical Harmonics?: true
    Max angular momentum: 1

   => Loading Basis Set <=

    Name: (AUG-CC-PVDZ AUX)
    Role: JKFIT
    Keyword: DF_BASIS_SCF
    atoms 1-2 entry HE         line    38 file /home/eric/opt/apps/python/psi4conda/share/psi4/basis/def2-qzvpp-jkfit.gbs 

  ==> Pre-Iterations <==

   -------------------------------------------------------
    Irrep   Nso     Nmo     Nalpha   Nbeta   Ndocc  Nsocc
   -------------------------------------------------------
     A         18      18       0       0       0       0
   -------------------------------------------------------
    Total      18      18       1       1       1       0
   -------------------------------------------------------

  ==> Integral Setup <==

  ==> DFJK: Density-Fitted J/K Matrices <==

    J tasked:                  Yes
    K tasked:                  Yes
    wK tasked:                  No
    OpenMP threads:              1
    Integrals threads:           1
    Memory (MB):              1430
    Algorithm:                Core
    Integral Cache:           LOAD
    Schwarz Cutoff:          1E-12
    Fitting Condition:       1E-12

   => Auxiliary Basis Set <=

  Basis Set: (AUG-CC-PVDZ AUX)
    Blend: DEF2-QZVPP-JKFIT
    Number of shells: 18
    Number of basis function: 46
    Number of Cartesian functions: 50
    Spherical Harmonics?: true
    Max angular momentum: 2

  Minimum eigenvalue in the overlap matrix is 1.7498775510E-01.
  Using Symmetric Orthogonalization.

  SCF Guess: Superposition of Atomic Densities via on-the-fly atomic UHF.

  ==> Iterations <==

                           Total Energy        Delta E     RMS |[F,P]|

   @DF-RHF iter   0:    -2.85573413890127   -2.85573e+00   3.90904e-06 
   @DF-RHF iter   1:    -2.85573414400908   -5.10781e-09   8.65552e-07 
   @DF-RHF iter   2:    -2.85573414426272   -2.53640e-10   1.99641e-07 DIIS
   @DF-RHF iter   3:    -2.85573414427696   -1.42335e-11   1.14909e-09 DIIS

  ==> Post-Iterations <==

    Orbital Energies (a.u.)
    -----------------------

    Doubly Occupied:                                                      

       1A     -0.917166  

    Virtual:                                                              

       2A      0.100088     3A      0.175582     4A      0.532180  
       5A      0.532181     6A      0.532181     7A      0.602275  
       8A      0.602281     9A      0.602281    10A      0.645023  
      11A      1.713730    12A      3.025934    13A      3.025935  
      14A      3.025935    15A      3.688360    16A      3.688360  
      17A      3.688360    18A      4.533052  

    Final Occupation by Irrep:
              A 
    DOCC [     1 ]

  Energy converged.

  @DF-RHF Final Energy:    -2.85573414427696

   => Energetics <=

    Nuclear Repulsion Energy =              0.0000000000000000
    One-Electron Energy =                  -3.8771357040650809
    Two-Electron Energy =                   1.0214015597881247
    DFT Exchange-Correlation Energy =       0.0000000000000000
    Empirical Dispersion Energy =           0.0000000000000000
    PCM Polarization Energy =               0.0000000000000000
    EFP Energy =                            0.0000000000000000
    Total Energy =                         -2.8557341442769562



Properties will be evaluated at   0.000000,   0.000000,   0.000000 Bohr

Properties computed using the SCF density matrix

  Nuclear Dipole Moment: (a.u.)
     X:     0.0000      Y:     0.0000      Z:    26.4562

  Electronic Dipole Moment: (a.u.)
     X:     0.0000      Y:     0.0000      Z:   -26.4562

  Dipole Moment: (a.u.)
     X:     0.0000      Y:     0.0000      Z:    -0.0000     Total:     0.0000

  Dipole Moment: (Debye)
     X:     0.0000      Y:     0.0000      Z:    -0.0000     Total:     0.0000


*** tstop() called on odysseus at Tue Jun 27 20:05:13 2017
Module time:
	user time   =       0.24 seconds =       0.00 minutes
	system time =       0.00 seconds =       0.00 minutes
	total time  =          0 seconds =       0.00 minutes
Total time:
	user time   =       0.76 seconds =       0.01 minutes
	system time =       0.01 seconds =       0.00 minutes
	total time  =          1 seconds =       0.02 minutes
   => Loading Basis Set <=

    Name: (AUG-CC-PVDZ AUX)
    Role: RIFIT
    Keyword: DF_BASIS_SAPT
    atoms 1-2 entry HE         line    49 file /home/eric/opt/apps/python/psi4conda/share/psi4/basis/aug-cc-pvdz-ri.gbs 


  //>>>>>>>>>>>>>>>>>>>>>>>>>>>>>>>>>>>//
  //               SAPT0               //
  //<<<<<<<<<<<<<<<<<<<<<<<<<<<<<<<<<<<//


*** tstart() called on odysseus
*** at Tue Jun 27 20:05:13 2017

        SAPT0  
    Ed Hohenstein
     6 June 2009

      Orbital Information
  --------------------------
    NSO        =        18
    NMO        =        18
    NRI        =        26
    NOCC A     =         1
    NOCC B     =         1
    FOCC A     =         0
    FOCC B     =         0
    NVIR A     =        17
    NVIR B     =        17

    Elst10,r            =    -0.000028635059 [Eh]
    Exch10              =    -0.000000000002 [Eh]
    Exch10 (S^2)        =    -0.000000000002 [Eh]

    Iter     Energy [mEh]          dE [mEh]         Residual      Time [s]
       1      -0.00000000       0.000000001       0.000084007             0
       2      -0.00000000       0.000000000       0.000008807             0
       3      -0.00000000      -0.000000000       0.000000253             0

    CHF Iterations converged


    Iter     Energy [mEh]          dE [mEh]         Residual      Time [s]
       1      -0.00000000       0.000000001       0.000084007             0
       2      -0.00000000       0.000000000       0.000008807             0
       3      -0.00000000      -0.000000000       0.000000253             0

    CHF Iterations converged

    Ind20,r (A<-B)      =    -0.000000000001 [Eh]
    Ind20,r (B<-A)      =    -0.000000000001 [Eh]
    Ind20,r             =    -0.000000000003 [Eh]
    Exch-Ind20,r (A<-B) =     0.000000000000 [Eh]
    Exch-Ind20,r (B<-A) =     0.000000000000 [Eh]
    Exch-Ind20,r        =     0.000000000000 [Eh]
    Disp20              =    -0.000000210910 [Eh]
    Disp20 (SS)         =    -0.000000105455 [Eh]
    Disp20 (OS)         =    -0.000000105455 [Eh]
    Exch-Disp20         =     0.000000000000 [Eh]
    Exch-Disp20 (SS)    =     0.000000000000 [Eh]
    Exch-Disp20 (OS)    =     0.000000000000 [Eh]

    SAPT Results 
  --------------------------------------------------------------------------------------------------------
    Electrostatics                 -0.02863506 [mEh]      -0.01796877 [kcal/mol]      -0.07518135 [kJ/mol]
      Elst10,r                     -0.02863506 [mEh]      -0.01796877 [kcal/mol]      -0.07518135 [kJ/mol]

    Exchange                       -0.00000000 [mEh]      -0.00000000 [kcal/mol]      -0.00000001 [kJ/mol]
      Exch10                       -0.00000000 [mEh]      -0.00000000 [kcal/mol]      -0.00000001 [kJ/mol]
      Exch10(S^2)                  -0.00000000 [mEh]      -0.00000000 [kcal/mol]      -0.00000001 [kJ/mol]

    Induction                       0.02529075 [mEh]       0.01587019 [kcal/mol]       0.06640087 [kJ/mol]
      Ind20,r                      -0.00000000 [mEh]      -0.00000000 [kcal/mol]      -0.00000001 [kJ/mol]
      Exch-Ind20,r                  0.00000000 [mEh]       0.00000000 [kcal/mol]       0.00000000 [kJ/mol]
      delta HF,r (2)                0.02529076 [mEh]       0.01587019 [kcal/mol]       0.06640088 [kJ/mol]

    Dispersion                     -0.00021091 [mEh]      -0.00013235 [kcal/mol]      -0.00055374 [kJ/mol]
      Disp20                       -0.00021091 [mEh]      -0.00013235 [kcal/mol]      -0.00055374 [kJ/mol]
      Exch-Disp20                   0.00000000 [mEh]       0.00000000 [kcal/mol]       0.00000000 [kJ/mol]
      Disp20 (SS)                  -0.00010545 [mEh]      -0.00006617 [kcal/mol]      -0.00027687 [kJ/mol]
      Disp20 (OS)                  -0.00010545 [mEh]      -0.00006617 [kcal/mol]      -0.00027687 [kJ/mol]
      Exch-Disp20 (SS)              0.00000000 [mEh]       0.00000000 [kcal/mol]       0.00000000 [kJ/mol]
      Exch-Disp20 (OS)              0.00000000 [mEh]       0.00000000 [kcal/mol]       0.00000000 [kJ/mol]

  Total HF                         -0.00334431 [mEh]      -0.00209858 [kcal/mol]      -0.00878048 [kJ/mol]
  Total SAPT0                      -0.00355522 [mEh]      -0.00223093 [kcal/mol]      -0.00933422 [kJ/mol]

  Special recipe for scaled SAPT0 (see Manual):
    Electrostatics sSAPT0          -0.02863506 [mEh]      -0.01796877 [kcal/mol]      -0.07518135 [kJ/mol]
    Exchange sSAPT0                -0.00000000 [mEh]      -0.00000000 [kcal/mol]      -0.00000001 [kJ/mol]
    Induction sSAPT0                0.02529075 [mEh]       0.01587019 [kcal/mol]       0.06640087 [kJ/mol]
    Dispersion sSAPT0              -0.00021091 [mEh]      -0.00013235 [kcal/mol]      -0.00055374 [kJ/mol]
  Total sSAPT0                     -0.00355522 [mEh]      -0.00223093 [kcal/mol]      -0.00933422 [kJ/mol]
  --------------------------------------------------------------------------------------------------------

*** tstop() called on odysseus at Tue Jun 27 20:05:13 2017
Module time:
	user time   =       0.05 seconds =       0.00 minutes
	system time =       0.00 seconds =       0.00 minutes
	total time  =          0 seconds =       0.00 minutes
Total time:
	user time   =       0.84 seconds =       0.01 minutes
	system time =       0.01 seconds =       0.00 minutes
	total time  =          1 seconds =       0.02 minutes


  Variable Map:
  ----------------------------------------------------------------------------
  "CURRENT DIPOLE X"                  =>       0.000000000000
  "CURRENT DIPOLE Y"                  =>       0.000000000000
  "CURRENT DIPOLE Z"                  =>      -0.000002304654
  "CURRENT ENERGY"                    =>      -0.000003555216
  "CURRENT REFERENCE ENERGY"          =>      -2.855734144277
  "HF TOTAL ENERGY"                   =>      -2.855734144277
  "NUCLEAR REPULSION ENERGY"          =>       0.000000000000
  "ONE-ELECTRON ENERGY"               =>      -3.877135704065
  "PCM POLARIZATION ENERGY"           =>       0.000000000000
  "SAPT ALPHA"                        =>       0.000000000000
  "SAPT CT ENERGY"                    =>      -0.000000000003
  "SAPT DISP ENERGY"                  =>      -0.000000210909
  "SAPT DISP20 ENERGY"                =>      -0.000000210910
  "SAPT ELST ENERGY"                  =>      -0.000028635059
  "SAPT ELST10,R ENERGY"              =>      -0.000028635059
  "SAPT ENERGY"                       =>       0.000000000000
  "SAPT EXCH ENERGY"                  =>      -0.000000000002
  "SAPT EXCH-DISP20 ENERGY"           =>       0.000000000000
  "SAPT EXCH-IND20,R ENERGY"          =>       0.000000000000
  "SAPT EXCH10 ENERGY"                =>      -0.000000000002
  "SAPT EXCH10(S^2) ENERGY"           =>      -0.000000000002
  "SAPT EXCHSCAL"                     =>       1.000000000000
  "SAPT EXCHSCAL1"                    =>       1.000000000000
  "SAPT EXCHSCAL3"                    =>       1.000000000000
  "SAPT HF TOTAL ENERGY"              =>      -0.000003344307
  "SAPT HF(2) ALPHA=0.0 ENERGY"       =>       0.000025290756
  "SAPT HF(2) ENERGY"                 =>       0.000025290756
  "SAPT IND ENERGY"                   =>       0.000025290754
  "SAPT IND20,R ENERGY"               =>      -0.000000000003
  "SAPT SAME-SPIN DISP20 ENERGY"      =>      -0.000000105455
  "SAPT SAME-SPIN EXCH-DISP20 ENERGY" =>       0.000000000000
  "SAPT TOTAL ENERGY"                 =>      -0.000003555216
  "SAPT0 DISP ENERGY"                 =>      -0.000000210909
  "SAPT0 ELST ENERGY"                 =>      -0.000028635059
  "SAPT0 EXCH ENERGY"                 =>      -0.000000000002
  "SAPT0 IND ENERGY"                  =>       0.000025290754
  "SAPT0 TOTAL ENERGY"                =>      -0.000003555216
  "SAPT2 DISP ENERGY"                 =>      -0.000000210909
  "SCF DIPOLE X"                      =>       0.000000000000
  "SCF DIPOLE Y"                      =>       0.000000000000
  "SCF DIPOLE Z"                      =>      -0.000002304654
  "SCF ITERATION ENERGY"              =>      -2.855734144277
  "SCF ITERATIONS"                    =>       3.000000000000
  "SCF TOTAL ENERGY"                  =>      -2.855734144277
  "SCS-SAPT0 DISP ENERGY"             =>      -0.000000196146
  "SCS-SAPT0 ELST ENERGY"             =>      -0.000028635059
  "SCS-SAPT0 EXCH ENERGY"             =>      -0.000000000002
  "SCS-SAPT0 IND ENERGY"              =>       0.000025290754
  "SCS-SAPT0 TOTAL ENERGY"            =>      -0.000003540453
  "SSAPT0 DISP ENERGY"                =>      -0.000000210909
  "SSAPT0 ELST ENERGY"                =>      -0.000028635059
  "SSAPT0 EXCH ENERGY"                =>      -0.000000000002
  "SSAPT0 IND ENERGY"                 =>       0.000025290754
  "SSAPT0 TOTAL ENERGY"               =>      -0.000003555216
  "TWO-ELECTRON ENERGY"               =>       1.021401559788



*** Psi4 exiting successfully. Buy a developer a beer!
